<?xml version="1.0" encoding="UTF-8"?>

<!-- generated on Mon 30 Apr 2018 10:36:10 PM MDT by SUMO gui Version 0.32.0
<?xml version="1.0" encoding="UTF-8"?>

<configuration xmlns:xsi="http://www.w3.org/2001/XMLSchema-instance" xsi:noNamespaceSchemaLocation="http://sumo.dlr.de/xsd/sumoConfiguration.xsd">

    <input>
        <net-file value="data/cross.net.xml"/>
        <route-files value="data/cross.rou.xml"/>
        <additional-files value="data/cross.det.xml"/>
    </input>

    <output>
        <summary-output value="data/cross.out"/>
        <tripinfo-output value="output/tripinfo1.xml"/>
    </output>

    <time>
        <begin value="0"/>
    </time>

    <report>
        <verbose value="true"/>
        <duration-log.statistics value="true"/>
        <no-step-log value="true"/>
    </report>

    <traci_server>
        <remote-port value="33628"/>
    </traci_server>

</configuration>
-->

<summary xmlns:xsi="http://www.w3.org/2001/XMLSchema-instance" xsi:noNamespaceSchemaLocation="http://sumo.dlr.de/xsd/summary_file.xsd">
    <step time="0.00" loaded="2" inserted="1" running="1" waiting="0" ended="0" meanWaitingTime="0.00" meanTravelTime="-1.00" halting="1" meanSpeed="0.00" meanSpeedRelative="0.00" duration="1525149403674"/>
    <step time="1.00" loaded="2" inserted="1" running="1" waiting="0" ended="0" meanWaitingTime="0.00" meanTravelTime="-1.00" halting="0" meanSpeed="0.44" meanSpeedRelative="0.04" duration="1525149405228"/>
    <step time="2.00" loaded="2" inserted="1" running="1" waiting="0" ended="0" meanWaitingTime="0.00" meanTravelTime="-1.00" halting="0" meanSpeed="0.96" meanSpeedRelative="0.09" duration="1525149405228"/>
    <step time="3.00" loaded="80" inserted="2" running="2" waiting="0" ended="0" meanWaitingTime="0.00" meanTravelTime="-1.00" halting="1" meanSpeed="0.87" meanSpeedRelative="0.08" duration="1525149405229"/>
    <step time="4.00" loaded="80" inserted="2" running="2" waiting="0" ended="0" meanWaitingTime="0.00" meanTravelTime="-1.00" halting="0" meanSpeed="1.45" meanSpeedRelative="0.09" duration="1525149405232"/>
    <step time="5.00" loaded="80" inserted="2" running="2" waiting="0" ended="0" meanWaitingTime="0.00" meanTravelTime="-1.00" halting="0" meanSpeed="2.10" meanSpeedRelative="0.13" duration="1525149405233"/>
    <step time="6.00" loaded="80" inserted="2" running="2" waiting="0" ended="0" meanWaitingTime="0.00" meanTravelTime="-1.00" halting="0" meanSpeed="2.74" meanSpeedRelative="0.18" duration="1525149405233"/>
    <step time="7.00" loaded="80" inserted="2" running="2" waiting="0" ended="0" meanWaitingTime="0.00" meanTravelTime="-1.00" halting="0" meanSpeed="3.39" meanSpeedRelative="0.17" duration="1525149405233"/>
    <step time="8.00" loaded="80" inserted="4" running="4" waiting="0" ended="0" meanWaitingTime="0.00" meanTravelTime="-1.00" halting="2" meanSpeed="1.98" meanSpeedRelative="0.10" duration="1525149405234"/>
    <step time="9.00" loaded="80" inserted="4" running="4" waiting="0" ended="0" meanWaitingTime="0.00" meanTravelTime="-1.00" halting="0" meanSpeed="2.65" meanSpeedRelative="0.15" duration="1525149405234"/>
    <step time="10.00" loaded="80" inserted="4" running="4" waiting="0" ended="0" meanWaitingTime="0.00" meanTravelTime="-1.00" halting="0" meanSpeed="3.25" meanSpeedRelative="0.19" duration="1525149405234"/>
    <step time="11.00" loaded="80" inserted="4" running="4" waiting="0" ended="0" meanWaitingTime="0.00" meanTravelTime="-1.00" halting="0" meanSpeed="3.81" meanSpeedRelative="0.23" duration="1525149405235"/>
    <step time="12.00" loaded="80" inserted="5" running="5" waiting="0" ended="0" meanWaitingTime="0.00" meanTravelTime="-1.00" halting="1" meanSpeed="3.48" meanSpeedRelative="0.18" duration="1525149405235"/>
    <step time="13.00" loaded="80" inserted="6" running="6" waiting="0" ended="0" meanWaitingTime="0.00" meanTravelTime="-1.00" halting="1" meanSpeed="3.47" meanSpeedRelative="0.18" duration="1525149405236"/>
    <step time="14.00" loaded="80" inserted="6" running="6" waiting="0" ended="0" meanWaitingTime="0.00" meanTravelTime="-1.00" halting="0" meanSpeed="4.12" meanSpeedRelative="0.23" duration="1525149405236"/>
    <step time="15.00" loaded="80" inserted="7" running="7" waiting="0" ended="0" meanWaitingTime="0.00" meanTravelTime="-1.00" halting="1" meanSpeed="4.06" meanSpeedRelative="0.23" duration="1525149405237"/>
    <step time="16.00" loaded="80" inserted="7" running="7" waiting="1" ended="0" meanWaitingTime="0.00" meanTravelTime="-1.00" halting="0" meanSpeed="4.65" meanSpeedRelative="0.25" duration="1525149405238"/>
    <step time="17.00" loaded="80" inserted="8" running="8" waiting="0" ended="0" meanWaitingTime="0.12" meanTravelTime="-1.00" halting="1" meanSpeed="4.55" meanSpeedRelative="0.24" duration="1525149405239"/>
    <step time="18.00" loaded="80" inserted="8" running="8" waiting="0" ended="0" meanWaitingTime="0.12" meanTravelTime="-1.00" halting="0" meanSpeed="5.20" meanSpeedRelative="0.28" duration="1525149405240"/>
    <step time="19.00" loaded="80" inserted="8" running="8" waiting="0" ended="0" meanWaitingTime="0.12" meanTravelTime="-1.00" halting="0" meanSpeed="5.86" meanSpeedRelative="0.31" duration="1525149405240"/>
    <step time="20.00" loaded="80" inserted="8" running="8" waiting="0" ended="0" meanWaitingTime="0.12" meanTravelTime="-1.00" halting="0" meanSpeed="6.52" meanSpeedRelative="0.35" duration="1525149405241"/>
    <step time="21.00" loaded="80" inserted="8" running="8" waiting="0" ended="0" meanWaitingTime="0.12" meanTravelTime="-1.00" halting="0" meanSpeed="7.09" meanSpeedRelative="0.36" duration="1525149405242"/>
    <step time="22.00" loaded="80" inserted="8" running="8" waiting="0" ended="0" meanWaitingTime="0.12" meanTravelTime="-1.00" halting="0" meanSpeed="7.70" meanSpeedRelative="0.40" duration="1525149405243"/>
    <step time="23.00" loaded="80" inserted="8" running="8" waiting="0" ended="0" meanWaitingTime="0.12" meanTravelTime="-1.00" halting="0" meanSpeed="8.27" meanSpeedRelative="0.43" duration="1525149405244"/>
    <step time="24.00" loaded="80" inserted="9" running="9" waiting="0" ended="0" meanWaitingTime="0.11" meanTravelTime="-1.00" halting="1" meanSpeed="7.89" meanSpeedRelative="0.41" duration="1525149405245"/>
    <step time="25.00" loaded="80" inserted="9" running="9" waiting="0" ended="0" meanWaitingTime="0.11" meanTravelTime="-1.00" halting="0" meanSpeed="8.48" meanSpeedRelative="0.44" duration="1525149405246"/>
    <step time="26.00" loaded="80" inserted="9" running="9" waiting="0" ended="0" meanWaitingTime="0.11" meanTravelTime="-1.00" halting="0" meanSpeed="9.08" meanSpeedRelative="0.47" duration="1525149405246"/>
    <step time="27.00" loaded="80" inserted="9" running="9" waiting="0" ended="0" meanWaitingTime="0.11" meanTravelTime="-1.00" halting="0" meanSpeed="9.62" meanSpeedRelative="0.50" duration="1525149405247"/>
    <step time="28.00" loaded="80" inserted="9" running="9" waiting="0" ended="0" meanWaitingTime="0.11" meanTravelTime="-1.00" halting="0" meanSpeed="10.19" meanSpeedRelative="0.52" duration="1525149405248"/>
    <step time="29.00" loaded="80" inserted="10" running="10" waiting="0" ended="0" meanWaitingTime="0.10" meanTravelTime="-1.00" halting="1" meanSpeed="9.66" meanSpeedRelative="0.50" duration="1525149405249"/>
    <interval begin="0.00" end="30.00" id="0" nVehContrib="0" flow="0.00" occupancy="0.00" speed="-1.00" length="-1.00" nVehEntered="0"/>
    <step time="30.00" loaded="80" inserted="11" running="11" waiting="0" ended="0" meanWaitingTime="0.09" meanTravelTime="-1.00" halting="1" meanSpeed="9.20" meanSpeedRelative="0.48" duration="1525149405250"/>
    <step time="31.00" loaded="80" inserted="11" running="11" waiting="0" ended="0" meanWaitingTime="0.09" meanTravelTime="-1.00" halting="0" meanSpeed="9.79" meanSpeedRelative="0.51" duration="1525149405251"/>
    <step time="32.00" loaded="80" inserted="11" running="11" waiting="0" ended="0" meanWaitingTime="0.09" meanTravelTime="-1.00" halting="0" meanSpeed="10.30" meanSpeedRelative="0.54" duration="1525149405252"/>
    <step time="33.00" loaded="80" inserted="11" running="11" waiting="0" ended="0" meanWaitingTime="0.09" meanTravelTime="-1.00" halting="0" meanSpeed="10.81" meanSpeedRelative="0.56" duration="1525149405253"/>
    <step time="34.00" loaded="80" inserted="11" running="11" waiting="0" ended="0" meanWaitingTime="0.09" meanTravelTime="-1.00" halting="0" meanSpeed="11.29" meanSpeedRelative="0.58" duration="1525149405254"/>
    <step time="35.00" loaded="80" inserted="12" running="12" waiting="0" ended="0" meanWaitingTime="0.08" meanTravelTime="-1.00" halting="1" meanSpeed="10.77" meanSpeedRelative="0.55" duration="1525149405255"/>
    <step time="36.00" loaded="80" inserted="12" running="12" waiting="0" ended="0" meanWaitingTime="0.08" meanTravelTime="-1.00" halting="0" meanSpeed="11.15" meanSpeedRelative="0.58" duration="1525149405256"/>
    <step time="37.00" loaded="80" inserted="12" running="12" waiting="1" ended="0" meanWaitingTime="0.08" meanTravelTime="-1.00" halting="0" meanSpeed="11.61" meanSpeedRelative="0.60" duration="1525149405256"/>
    <step time="38.00" loaded="80" inserted="12" running="12" waiting="1" ended="0" meanWaitingTime="0.08" meanTravelTime="-1.00" halting="0" meanSpeed="11.99" meanSpeedRelative="0.62" duration="1525149405257"/>
    <step time="39.00" loaded="80" inserted="12" running="12" waiting="1" ended="0" meanWaitingTime="0.08" meanTravelTime="-1.00" halting="0" meanSpeed="12.38" meanSpeedRelative="0.64" duration="1525149405258"/>
    <step time="40.00" loaded="80" inserted="13" running="13" waiting="0" ended="0" meanWaitingTime="0.31" meanTravelTime="-1.00" halting="1" meanSpeed="11.75" meanSpeedRelative="0.60" duration="1525149405262"/>
    <step time="41.00" loaded="80" inserted="15" running="15" waiting="0" ended="0" meanWaitingTime="0.27" meanTravelTime="-1.00" halting="2" meanSpeed="10.42" meanSpeedRelative="0.54" duration="1525149405263"/>
    <step time="42.00" loaded="80" inserted="15" running="15" waiting="0" ended="0" meanWaitingTime="0.27" meanTravelTime="-1.00" halting="0" meanSpeed="10.74" meanSpeedRelative="0.56" duration="1525149405264"/>
    <step time="43.00" loaded="80" inserted="15" running="15" waiting="1" ended="0" meanWaitingTime="0.27" meanTravelTime="-1.00" halting="0" meanSpeed="11.11" meanSpeedRelative="0.58" duration="1525149405266"/>
    <step time="44.00" loaded="80" inserted="15" running="15" waiting="1" ended="0" meanWaitingTime="0.27" meanTravelTime="-1.00" halting="0" meanSpeed="11.33" meanSpeedRelative="0.59" duration="1525149405267"/>
    <step time="45.00" loaded="80" inserted="15" running="15" waiting="1" ended="0" meanWaitingTime="0.27" meanTravelTime="-1.00" halting="0" meanSpeed="11.17" meanSpeedRelative="0.61" duration="1525149405268"/>
    <step time="46.00" loaded="80" inserted="16" running="16" waiting="1" ended="0" meanWaitingTime="0.25" meanTravelTime="-1.00" halting="1" meanSpeed="10.73" meanSpeedRelative="0.58" duration="1525149405270"/>
    <step time="47.00" loaded="80" inserted="18" running="18" waiting="1" ended="0" meanWaitingTime="0.44" meanTravelTime="-1.00" halting="2" meanSpeed="9.74" meanSpeedRelative="0.53" duration="1525149405272"/>
    <step time="48.00" loaded="80" inserted="18" running="18" waiting="1" ended="0" meanWaitingTime="0.44" meanTravelTime="-1.00" halting="0" meanSpeed="9.95" meanSpeedRelative="0.56" duration="1525149405274"/>
    <step time="49.00" loaded="80" inserted="18" running="18" waiting="3" ended="0" meanWaitingTime="0.44" meanTravelTime="-1.00" halting="0" meanSpeed="10.22" meanSpeedRelative="0.58" duration="1525149405276"/>
    <step time="50.00" loaded="80" inserted="18" running="18" waiting="3" ended="0" meanWaitingTime="0.44" meanTravelTime="-1.00" halting="0" meanSpeed="10.52" meanSpeedRelative="0.60" duration="1525149405277"/>
    <step time="51.00" loaded="80" inserted="18" running="18" waiting="3" ended="0" meanWaitingTime="0.44" meanTravelTime="-1.00" halting="0" meanSpeed="10.58" meanSpeedRelative="0.59" duration="1525149405279"/>
    <step time="52.00" loaded="80" inserted="20" running="20" waiting="1" ended="0" meanWaitingTime="0.80" meanTravelTime="-1.00" halting="2" meanSpeed="9.33" meanSpeedRelative="0.52" duration="1525149405280"/>
    <step time="53.00" loaded="80" inserted="20" running="20" waiting="1" ended="0" meanWaitingTime="0.80" meanTravelTime="-1.00" halting="0" meanSpeed="9.43" meanSpeedRelative="0.55" duration="1525149405281"/>
    <step time="54.00" loaded="80" inserted="20" running="20" waiting="2" ended="0" meanWaitingTime="0.80" meanTravelTime="-1.00" halting="1" meanSpeed="9.63" meanSpeedRelative="0.56" duration="1525149405283"/>
    <step time="55.00" loaded="80" inserted="20" running="20" waiting="2" ended="0" meanWaitingTime="0.80" meanTravelTime="-1.00" halting="1" meanSpeed="9.96" meanSpeedRelative="0.58" duration="1525149405284"/>
    <step time="56.00" loaded="80" inserted="20" running="20" waiting="2" ended="0" meanWaitingTime="0.80" meanTravelTime="-1.00" halting="1" meanSpeed="10.09" meanSpeedRelative="0.58" duration="1525149405285"/>
    <step time="57.00" loaded="80" inserted="23" running="23" waiting="1" ended="0" meanWaitingTime="1.17" meanTravelTime="-1.00" halting="4" meanSpeed="8.94" meanSpeedRelative="0.53" duration="1525149405287"/>
    <step time="58.00" loaded="80" inserted="23" running="23" waiting="2" ended="0" meanWaitingTime="1.17" meanTravelTime="-1.00" halting="1" meanSpeed="8.87" meanSpeedRelative="0.55" duration="1525149405289"/>
    <step time="59.00" loaded="80" inserted="23" running="23" waiting="3" ended="0" meanWaitingTime="1.17" meanTravelTime="-1.00" halting="1" meanSpeed="8.99" meanSpeedRelative="0.56" duration="1525149405290"/>
    <interval begin="30.00" end="60.00" id="0" nVehContrib="3" flow="360.00" occupancy="3.05" speed="16.41" length="5.00" nVehEntered="3"/>
    <step time="60.00" loaded="80" inserted="23" running="23" waiting="3" ended="0" meanWaitingTime="1.17" meanTravelTime="-1.00" halting="1" meanSpeed="9.11" meanSpeedRelative="0.57" duration="1525149405293"/>
    <step time="61.00" loaded="80" inserted="23" running="23" waiting="3" ended="0" meanWaitingTime="1.17" meanTravelTime="-1.00" halting="2" meanSpeed="9.12" meanSpeedRelative="0.56" duration="1525149405295"/>
    <step time="62.00" loaded="80" inserted="25" running="25" waiting="2" ended="0" meanWaitingTime="1.44" meanTravelTime="-1.00" halting="2" meanSpeed="8.65" meanSpeedRelative="0.55" duration="1525149405299"/>
    <step time="63.00" loaded="80" inserted="26" running="26" waiting="3" ended="0" meanWaitingTime="1.38" meanTravelTime="-1.00" halting="1" meanSpeed="8.66" meanSpeedRelative="0.54" duration="1525149405301"/>
    <step time="64.00" loaded="80" inserted="26" running="26" waiting="4" ended="0" meanWaitingTime="1.38" meanTravelTime="-1.00" halting="0" meanSpeed="9.07" meanSpeedRelative="0.57" duration="1525149405303"/>
    <step time="65.00" loaded="80" inserted="26" running="26" waiting="4" ended="0" meanWaitingTime="1.38" meanTravelTime="-1.00" halting="0" meanSpeed="9.41" meanSpeedRelative="0.59" duration="1525149405306"/>
    <step time="66.00" loaded="80" inserted="27" running="27" waiting="5" ended="0" meanWaitingTime="1.33" meanTravelTime="-1.00" halting="1" meanSpeed="9.41" meanSpeedRelative="0.58" duration="1525149405309"/>
    <step time="67.00" loaded="80" inserted="29" running="29" waiting="3" ended="0" meanWaitingTime="1.66" meanTravelTime="-1.00" halting="2" meanSpeed="9.09" meanSpeedRelative="0.57" duration="1525149405311"/>
    <step time="68.00" loaded="80" inserted="30" running="30" waiting="2" ended="0" meanWaitingTime="1.73" meanTravelTime="-1.00" halting="2" meanSpeed="9.01" meanSpeedRelative="0.56" duration="1525149405313"/>
    <step time="69.00" loaded="80" inserted="30" running="30" waiting="2" ended="0" meanWaitingTime="1.73" meanTravelTime="-1.00" halting="0" meanSpeed="9.33" meanSpeedRelative="0.58" duration="1525149405316"/>
    <step time="70.00" loaded="80" inserted="30" running="30" waiting="3" ended="0" meanWaitingTime="1.73" meanTravelTime="-1.00" halting="0" meanSpeed="9.68" meanSpeedRelative="0.61" duration="1525149405318"/>
    <step time="71.00" loaded="80" inserted="31" running="31" waiting="3" ended="0" meanWaitingTime="1.68" meanTravelTime="-1.00" halting="1" meanSpeed="9.67" meanSpeedRelative="0.61" duration="1525149405321"/>
    <step time="72.00" loaded="80" inserted="31" running="31" waiting="3" ended="0" meanWaitingTime="1.68" meanTravelTime="-1.00" halting="0" meanSpeed="10.01" meanSpeedRelative="0.62" duration="1525149405324"/>
    <step time="73.00" loaded="80" inserted="34" running="34" waiting="1" ended="0" meanWaitingTime="2.06" meanTravelTime="-1.00" halting="3" meanSpeed="9.31" meanSpeedRelative="0.58" duration="1525149405326"/>
    <step time="74.00" loaded="80" inserted="34" running="34" waiting="1" ended="0" meanWaitingTime="2.06" meanTravelTime="-1.00" halting="0" meanSpeed="9.51" meanSpeedRelative="0.59" duration="1525149405328"/>
    <step time="75.00" loaded="80" inserted="34" running="34" waiting="2" ended="0" meanWaitingTime="2.06" meanTravelTime="-1.00" halting="0" meanSpeed="9.72" meanSpeedRelative="0.62" duration="1525149405334"/>
    <step time="76.00" loaded="80" inserted="34" running="34" waiting="3" ended="0" meanWaitingTime="2.06" meanTravelTime="-1.00" halting="0" meanSpeed="10.04" meanSpeedRelative="0.65" duration="1525149405337"/>
    <step time="77.00" loaded="80" inserted="34" running="34" waiting="3" ended="0" meanWaitingTime="2.06" meanTravelTime="-1.00" halting="0" meanSpeed="10.42" meanSpeedRelative="0.67" duration="1525149405340"/>
    <step time="78.00" loaded="80" inserted="36" running="36" waiting="1" ended="0" meanWaitingTime="2.08" meanTravelTime="-1.00" halting="2" meanSpeed="10.16" meanSpeedRelative="0.65" duration="1525149405342"/>
    <step time="79.00" loaded="80" inserted="38" running="38" waiting="2" ended="0" meanWaitingTime="2.21" meanTravelTime="-1.00" halting="2" meanSpeed="9.96" meanSpeedRelative="0.63" duration="1525149405344"/>
    <step time="80.00" loaded="80" inserted="38" running="38" waiting="2" ended="0" meanWaitingTime="2.21" meanTravelTime="-1.00" halting="0" meanSpeed="10.21" meanSpeedRelative="0.66" duration="1525149405346"/>
    <step time="81.00" loaded="80" inserted="38" running="38" waiting="2" ended="0" meanWaitingTime="2.21" meanTravelTime="-1.00" halting="0" meanSpeed="10.50" meanSpeedRelative="0.68" duration="1525149405349"/>
    <step time="82.00" loaded="80" inserted="38" running="38" waiting="2" ended="0" meanWaitingTime="2.21" meanTravelTime="-1.00" halting="0" meanSpeed="10.80" meanSpeedRelative="0.69" duration="1525149405351"/>
    <step time="83.00" loaded="80" inserted="39" running="39" waiting="1" ended="0" meanWaitingTime="2.26" meanTravelTime="-1.00" halting="1" meanSpeed="10.81" meanSpeedRelative="0.69" duration="1525149405354"/>
    <step time="84.00" loaded="80" inserted="40" running="40" waiting="0" ended="0" meanWaitingTime="2.33" meanTravelTime="-1.00" halting="1" meanSpeed="10.80" meanSpeedRelative="0.68" duration="1525149405357"/>
    <step time="85.00" loaded="80" inserted="40" running="40" waiting="0" ended="0" meanWaitingTime="2.33" meanTravelTime="-1.00" halting="0" meanSpeed="10.83" meanSpeedRelative="0.70" duration="1525149405361"/>
    <step time="86.00" loaded="80" inserted="40" running="40" waiting="0" ended="0" meanWaitingTime="2.33" meanTravelTime="-1.00" halting="0" meanSpeed="10.89" meanSpeedRelative="0.70" duration="1525149405363"/>
    <step time="87.00" loaded="80" inserted="41" running="41" waiting="0" ended="0" meanWaitingTime="2.27" meanTravelTime="-1.00" halting="1" meanSpeed="10.69" meanSpeedRelative="0.69" duration="1525149405367"/>
    <step time="88.00" loaded="80" inserted="41" running="41" waiting="0" ended="0" meanWaitingTime="2.27" meanTravelTime="-1.00" halting="1" meanSpeed="10.73" meanSpeedRelative="0.69" duration="1525149405370"/>
    <step time="89.00" loaded="80" inserted="41" running="41" waiting="0" ended="0" meanWaitingTime="2.27" meanTravelTime="-1.00" halting="1" meanSpeed="10.77" meanSpeedRelative="0.69" duration="1525149405374"/>
    <interval begin="60.00" end="90.00" id="0" nVehContrib="0" flow="0.00" occupancy="0.00" speed="-1.00" length="-1.00" nVehEntered="0"/>
    <step time="90.00" loaded="80" inserted="41" running="41" waiting="0" ended="0" meanWaitingTime="2.27" meanTravelTime="-1.00" halting="2" meanSpeed="10.73" meanSpeedRelative="0.69" duration="1525149405377"/>
    <step time="91.00" loaded="80" inserted="41" running="40" waiting="0" ended="1" meanWaitingTime="2.27" meanTravelTime="91.00" halting="2" meanSpeed="10.66" meanSpeedRelative="0.68" duration="1525149405379"/>
    <step time="92.00" loaded="80" inserted="41" running="40" waiting="0" ended="1" meanWaitingTime="2.27" meanTravelTime="91.00" halting="1" meanSpeed="10.71" meanSpeedRelative="0.69" duration="1525149405384"/>
    <step time="93.00" loaded="80" inserted="42" running="41" waiting="1" ended="1" meanWaitingTime="2.21" meanTravelTime="91.00" halting="1" meanSpeed="10.70" meanSpeedRelative="0.67" duration="1525149405388"/>
    <step time="94.00" loaded="80" inserted="43" running="41" waiting="0" ended="2" meanWaitingTime="2.19" meanTravelTime="91.00" halting="1" meanSpeed="10.70" meanSpeedRelative="0.67" duration="1525149405391"/>
    <step time="95.00" loaded="80" inserted="44" running="42" waiting="0" ended="2" meanWaitingTime="2.14" meanTravelTime="91.00" halting="1" meanSpeed="10.52" meanSpeedRelative="0.66" duration="1525149405395"/>
    <step time="96.00" loaded="80" inserted="44" running="42" waiting="0" ended="2" meanWaitingTime="2.14" meanTravelTime="91.00" halting="0" meanSpeed="10.59" meanSpeedRelative="0.67" duration="1525149405398"/>
    <step time="97.00" loaded="80" inserted="44" running="42" waiting="1" ended="2" meanWaitingTime="2.14" meanTravelTime="91.00" halting="0" meanSpeed="10.71" meanSpeedRelative="0.68" duration="1525149405400"/>
    <step time="98.00" loaded="80" inserted="44" running="42" waiting="2" ended="2" meanWaitingTime="2.14" meanTravelTime="91.00" halting="0" meanSpeed="10.89" meanSpeedRelative="0.68" duration="1525149405403"/>
    <step time="99.00" loaded="80" inserted="45" running="42" waiting="2" ended="3" meanWaitingTime="2.11" meanTravelTime="91.00" halting="1" meanSpeed="10.68" meanSpeedRelative="0.67" duration="1525149405405"/>
    <step time="100.00" loaded="80" inserted="47" running="44" waiting="1" ended="3" meanWaitingTime="2.09" meanTravelTime="91.00" halting="2" meanSpeed="10.22" meanSpeedRelative="0.64" duration="1525149405408"/>
    <step time="101.00" loaded="80" inserted="47" running="44" waiting="1" ended="3" meanWaitingTime="2.09" meanTravelTime="91.00" halting="0" meanSpeed="10.28" meanSpeedRelative="0.66" duration="1525149405411"/>
    <step time="102.00" loaded="80" inserted="47" running="44" waiting="1" ended="3" meanWaitingTime="2.09" meanTravelTime="91.00" halting="0" meanSpeed="10.34" meanSpeedRelative="0.65" duration="1525149405415"/>
    <step time="103.00" loaded="80" inserted="47" running="43" waiting="1" ended="4" meanWaitingTime="2.09" meanTravelTime="91.00" halting="1" meanSpeed="10.50" meanSpeedRelative="0.66" duration="1525149405418"/>
    <step time="104.00" loaded="80" inserted="48" running="43" waiting="0" ended="5" meanWaitingTime="2.15" meanTravelTime="91.00" halting="2" meanSpeed="10.51" meanSpeedRelative="0.67" duration="1525149405422"/>
    <step time="105.00" loaded="80" inserted="48" running="43" waiting="0" ended="5" meanWaitingTime="2.15" meanTravelTime="91.00" halting="1" meanSpeed="10.65" meanSpeedRelative="0.68" duration="1525149405426"/>
    <step time="106.00" loaded="80" inserted="48" running="43" waiting="0" ended="5" meanWaitingTime="2.15" meanTravelTime="91.00" halting="1" meanSpeed="10.68" meanSpeedRelative="0.69" duration="1525149405429"/>
    <step time="107.00" loaded="80" inserted="48" running="43" waiting="0" ended="5" meanWaitingTime="2.15" meanTravelTime="91.00" halting="1" meanSpeed="10.73" meanSpeedRelative="0.69" duration="1525149405432"/>
    <step time="108.00" loaded="80" inserted="48" running="42" waiting="0" ended="6" meanWaitingTime="2.15" meanTravelTime="91.00" halting="1" meanSpeed="10.86" meanSpeedRelative="0.71" duration="1525149405436"/>
    <step time="109.00" loaded="80" inserted="48" running="42" waiting="0" ended="6" meanWaitingTime="2.15" meanTravelTime="91.00" halting="2" meanSpeed="10.91" meanSpeedRelative="0.73" duration="1525149405439"/>
    <step time="110.00" loaded="80" inserted="49" running="43" waiting="0" ended="6" meanWaitingTime="2.10" meanTravelTime="91.00" halting="3" meanSpeed="10.62" meanSpeedRelative="0.71" duration="1525149405443"/>
    <step time="111.00" loaded="80" inserted="49" running="43" waiting="0" ended="6" meanWaitingTime="2.10" meanTravelTime="91.00" halting="2" meanSpeed="10.64" meanSpeedRelative="0.72" duration="1525149405446"/>
    <step time="112.00" loaded="80" inserted="50" running="44" waiting="0" ended="6" meanWaitingTime="2.06" meanTravelTime="91.00" halting="4" meanSpeed="10.34" meanSpeedRelative="0.70" duration="1525149405449"/>
    <step time="113.00" loaded="80" inserted="50" running="44" waiting="0" ended="6" meanWaitingTime="2.06" meanTravelTime="91.00" halting="4" meanSpeed="10.35" meanSpeedRelative="0.72" duration="1525149405453"/>
    <step time="114.00" loaded="80" inserted="51" running="45" waiting="0" ended="6" meanWaitingTime="2.02" meanTravelTime="91.00" halting="5" meanSpeed="10.13" meanSpeedRelative="0.71" duration="1525149405456"/>
    <step time="115.00" loaded="80" inserted="52" running="46" waiting="0" ended="6" meanWaitingTime="1.98" meanTravelTime="91.00" halting="5" meanSpeed="9.90" meanSpeedRelative="0.69" duration="1525149405460"/>
    <step time="116.00" loaded="80" inserted="52" running="46" waiting="1" ended="6" meanWaitingTime="1.98" meanTravelTime="91.00" halting="4" meanSpeed="9.89" meanSpeedRelative="0.68" duration="1525149405464"/>
    <step time="117.00" loaded="80" inserted="52" running="45" waiting="1" ended="7" meanWaitingTime="1.98" meanTravelTime="93.57" halting="5" meanSpeed="9.84" meanSpeedRelative="0.68" duration="1525149405468"/>
    <step time="118.00" loaded="80" inserted="52" running="44" waiting="1" ended="8" meanWaitingTime="1.98" meanTravelTime="94.75" halting="6" meanSpeed="9.71" meanSpeedRelative="0.67" duration="1525149405471"/>
    <step time="119.00" loaded="80" inserted="53" running="44" waiting="0" ended="9" meanWaitingTime="2.00" meanTravelTime="94.78" halting="7" meanSpeed="9.51" meanSpeedRelative="0.67" duration="1525149405475"/>
    <interval begin="90.00" end="120.00" id="0" nVehContrib="5" flow="600.00" occupancy="5.99" speed="14.32" length="5.00" nVehEntered="5"/>
    <step time="120.00" loaded="80" inserted="53" running="44" waiting="0" ended="9" meanWaitingTime="2.00" meanTravelTime="94.78" halting="6" meanSpeed="9.58" meanSpeedRelative="0.67" duration="1525149405478"/>
    <step time="121.00" loaded="80" inserted="53" running="43" waiting="0" ended="10" meanWaitingTime="2.00" meanTravelTime="94.50" halting="6" meanSpeed="9.48" meanSpeedRelative="0.67" duration="1525149405482"/>
    <step time="122.00" loaded="80" inserted="53" running="43" waiting="1" ended="10" meanWaitingTime="2.00" meanTravelTime="94.50" halting="7" meanSpeed="9.38" meanSpeedRelative="0.66" duration="1525149405485"/>
    <step time="123.00" loaded="80" inserted="54" running="43" waiting="2" ended="11" meanWaitingTime="1.96" meanTravelTime="94.36" halting="8" meanSpeed="9.13" meanSpeedRelative="0.65" duration="1525149405489"/>
    <step time="124.00" loaded="80" inserted="55" running="44" waiting="1" ended="11" meanWaitingTime="1.96" meanTravelTime="94.36" halting="8" meanSpeed="8.90" meanSpeedRelative="0.64" duration="1525149405492"/>
    <step time="125.00" loaded="80" inserted="55" running="44" waiting="1" ended="11" meanWaitingTime="1.96" meanTravelTime="94.36" halting="8" meanSpeed="9.03" meanSpeedRelative="0.65" duration="1525149405496"/>
    <step time="126.00" loaded="80" inserted="56" running="45" waiting="1" ended="11" meanWaitingTime="1.93" meanTravelTime="94.36" halting="9" meanSpeed="8.95" meanSpeedRelative="0.63" duration="1525149405499"/>
    <step time="127.00" loaded="80" inserted="56" running="44" waiting="1" ended="12" meanWaitingTime="1.93" meanTravelTime="94.17" halting="8" meanSpeed="9.01" meanSpeedRelative="0.64" duration="1525149405502"/>
    <step time="128.00" loaded="80" inserted="56" running="44" waiting="1" ended="12" meanWaitingTime="1.93" meanTravelTime="94.17" halting="8" meanSpeed="9.09" meanSpeedRelative="0.65" duration="1525149405506"/>
    <step time="129.00" loaded="80" inserted="57" running="45" waiting="1" ended="12" meanWaitingTime="2.00" meanTravelTime="94.17" halting="9" meanSpeed="8.83" meanSpeedRelative="0.63" duration="1525149405509"/>
    <step time="130.00" loaded="80" inserted="57" running="45" waiting="1" ended="12" meanWaitingTime="2.00" meanTravelTime="94.17" halting="6" meanSpeed="8.84" meanSpeedRelative="0.64" duration="1525149405516"/>
    <step time="131.00" loaded="80" inserted="57" running="45" waiting="1" ended="12" meanWaitingTime="2.00" meanTravelTime="94.17" halting="4" meanSpeed="8.93" meanSpeedRelative="0.64" duration="1525149405519"/>
    <step time="132.00" loaded="80" inserted="57" running="44" waiting="1" ended="13" meanWaitingTime="2.00" meanTravelTime="94.00" halting="2" meanSpeed="9.04" meanSpeedRelative="0.65" duration="1525149405523"/>
    <step time="133.00" loaded="80" inserted="57" running="44" waiting="1" ended="13" meanWaitingTime="2.00" meanTravelTime="94.00" halting="1" meanSpeed="9.24" meanSpeedRelative="0.66" duration="1525149405526"/>