<?xml version="1.0" encoding="UTF-8"?>

<!-- generated on Mon Apr 30 16:38:23 2018 by SUMO Version 0.32.0
<?xml version="1.0" encoding="UTF-8"?>

<configuration xmlns:xsi="http://www.w3.org/2001/XMLSchema-instance" xsi:noNamespaceSchemaLocation="http://sumo.dlr.de/xsd/sumoConfiguration.xsd">

    <input>
        <net-file value="data/cross.net.xml"/>
        <route-files value="data/cross.rou.xml"/>
        <additional-files value="data/cross.det.xml"/>
    </input>

    <output>
        <summary-output value="data/cross.out"/>
        <tripinfo-output value="output/tripinfo100.xml"/>
    </output>

    <time>
        <begin value="0"/>
    </time>

    <report>
        <verbose value="true"/>
        <duration-log.statistics value="true"/>
        <no-step-log value="true"/>
    </report>

    <traci_server>
        <remote-port value="54810"/>
    </traci_server>

</configuration>
-->

<tripinfos xmlns:xsi="http://www.w3.org/2001/XMLSchema-instance" xsi:noNamespaceSchemaLocation="http://sumo.dlr.de/xsd/tripinfo_file.xsd">
    <tripinfo id="up_1" depart="3.00" departLane="53o_0" departPos="5.10" departSpeed="0.00" departDelay="0.00" arrival="94.00" arrivalLane="54i_0" arrivalPos="10.00" arrivalSpeed="11.24" duration="91.00" routeLength="1015.10" waitSteps="0" timeLoss="14.85" rerouteNo="0" devices="tripinfo_up_1" vType="typeNS" speedFactor="1.00" vaporized=""/>
    <tripinfo id="down_0" depart="3.00" departLane="54o_0" departPos="5.10" departSpeed="0.00" departDelay="0.00" arrival="94.00" arrivalLane="53i_0" arrivalPos="10.00" arrivalSpeed="11.45" duration="91.00" routeLength="1015.10" waitSteps="0" timeLoss="14.88" rerouteNo="0" devices="tripinfo_down_0" vType="typeNS" speedFactor="1.00" vaporized=""/>
    <tripinfo id="down_3" depart="11.00" departLane="54o_0" departPos="5.10" departSpeed="0.00" departDelay="0.00" arrival="102.00" arrivalLane="53i_0" arrivalPos="10.00" arrivalSpeed="11.52" duration="91.00" routeLength="1015.10" waitSteps="0" timeLoss="15.01" rerouteNo="0" devices="tripinfo_down_3" vType="typeNS" speedFactor="1.00" vaporized=""/>
    <tripinfo id="up_4" depart="15.00" departLane="53o_0" departPos="5.10" departSpeed="0.00" departDelay="0.00" arrival="107.00" arrivalLane="54i_0" arrivalPos="10.00" arrivalSpeed="11.48" duration="92.00" routeLength="1015.10" waitSteps="0" timeLoss="15.73" rerouteNo="0" devices="tripinfo_up_4" vType="typeNS" speedFactor="1.00" vaporized=""/>
    <tripinfo id="left_2" depart="11.00" departLane="52o_0" departPos="5.10" departSpeed="0.00" departDelay="0.00" arrival="117.00" arrivalLane="51i_0" arrivalPos="10.00" arrivalSpeed="11.87" duration="106.00" routeLength="1015.10" waitSteps="3" timeLoss="29.80" rerouteNo="0" devices="tripinfo_left_2" vType="typeWE" speedFactor="1.00" vaporized=""/>
    <tripinfo id="left_6" depart="25.00" departLane="52o_0" departPos="5.10" departSpeed="0.00" departDelay="0.00" arrival="119.00" arrivalLane="51i_0" arrivalPos="10.00" arrivalSpeed="11.49" duration="94.00" routeLength="1015.10" waitSteps="0" timeLoss="17.41" rerouteNo="0" devices="tripinfo_left_6" vType="typeWE" speedFactor="1.00" vaporized=""/>
    <tripinfo id="right_9" depart="28.00" departLane="51o_0" departPos="5.10" departSpeed="0.00" departDelay="0.00" arrival="121.00" arrivalLane="52i_0" arrivalPos="10.00" arrivalSpeed="11.49" duration="93.00" routeLength="1015.10" waitSteps="0" timeLoss="16.64" rerouteNo="0" devices="tripinfo_right_9" vType="typeWE" speedFactor="1.00" vaporized=""/>
    <tripinfo id="right_10" depart="47.00" departLane="51o_0" departPos="5.10" departSpeed="0.00" departDelay="0.00" arrival="138.00" arrivalLane="52i_0" arrivalPos="10.00" arrivalSpeed="11.75" duration="91.00" routeLength="1015.10" waitSteps="0" timeLoss="14.79" rerouteNo="0" devices="tripinfo_right_10" vType="typeWE" speedFactor="1.00" vaporized=""/>
    <tripinfo id="left_12" depart="58.00" departLane="52o_0" departPos="5.10" departSpeed="0.00" departDelay="0.00" arrival="149.00" arrivalLane="51i_0" arrivalPos="10.00" arrivalSpeed="11.01" duration="91.00" routeLength="1015.10" waitSteps="0" timeLoss="14.83" rerouteNo="0" devices="tripinfo_left_12" vType="typeWE" speedFactor="1.00" vaporized=""/>
    <tripinfo id="left_14" depart="63.00" departLane="52o_0" departPos="5.10" departSpeed="0.00" departDelay="0.00" arrival="154.00" arrivalLane="51i_0" arrivalPos="10.00" arrivalSpeed="11.69" duration="91.00" routeLength="1015.10" waitSteps="0" timeLoss="14.66" rerouteNo="0" devices="tripinfo_left_14" vType="typeWE" speedFactor="1.00" vaporized=""/>
    <tripinfo id="up_5" depart="20.00" departLane="53o_0" departPos="5.10" departSpeed="0.00" departDelay="3.00" arrival="176.00" arrivalLane="54i_0" arrivalPos="10.00" arrivalSpeed="11.49" duration="156.00" routeLength="1015.10" waitSteps="54" timeLoss="79.72" rerouteNo="0" devices="tripinfo_up_5" vType="typeNS" speedFactor="1.00" vaporized=""/>
    <tripinfo id="down_7" depart="26.00" departLane="54o_0" departPos="5.10" departSpeed="0.00" departDelay="0.00" arrival="177.00" arrivalLane="53i_0" arrivalPos="10.00" arrivalSpeed="11.75" duration="151.00" routeLength="1015.10" waitSteps="49" timeLoss="74.70" rerouteNo="0" devices="tripinfo_down_7" vType="typeNS" speedFactor="1.00" vaporized=""/>
    <tripinfo id="up_11" depart="55.00" departLane="53o_0" departPos="5.10" departSpeed="0.00" departDelay="0.00" arrival="179.00" arrivalLane="54i_0" arrivalPos="10.00" arrivalSpeed="11.29" duration="124.00" routeLength="1015.10" waitSteps="20" timeLoss="47.89" rerouteNo="0" devices="tripinfo_up_11" vType="typeNS" speedFactor="1.00" vaporized=""/>
    <tripinfo id="down_8" depart="31.00" departLane="54o_0" departPos="5.10" departSpeed="0.00" departDelay="4.00" arrival="179.00" arrivalLane="53i_0" arrivalPos="10.00" arrivalSpeed="11.81" duration="148.00" routeLength="1015.10" waitSteps="45" timeLoss="71.59" rerouteNo="0" devices="tripinfo_down_8" vType="typeNS" speedFactor="1.00" vaporized=""/>
    <tripinfo id="up_13" depart="61.00" departLane="53o_0" departPos="5.10" departSpeed="0.00" departDelay="0.00" arrival="181.00" arrivalLane="54i_0" arrivalPos="10.00" arrivalSpeed="11.44" duration="120.00" routeLength="1015.10" waitSteps="16" timeLoss="43.94" rerouteNo="0" devices="tripinfo_up_13" vType="typeNS" speedFactor="1.00" vaporized=""/>
    <tripinfo id="down_15" depart="65.00" departLane="54o_0" departPos="5.10" departSpeed="0.00" departDelay="0.00" arrival="181.00" arrivalLane="53i_0" arrivalPos="10.00" arrivalSpeed="11.42" duration="116.00" routeLength="1015.10" waitSteps="11" timeLoss="39.56" rerouteNo="0" devices="tripinfo_down_15" vType="typeNS" speedFactor="1.00" vaporized=""/>
    <tripinfo id="down_17" depart="70.00" departLane="54o_0" departPos="5.10" departSpeed="0.00" departDelay="0.00" arrival="182.00" arrivalLane="53i_0" arrivalPos="10.00" arrivalSpeed="11.10" duration="112.00" routeLength="1015.10" waitSteps="8" timeLoss="35.89" rerouteNo="0" devices="tripinfo_down_17" vType="typeNS" speedFactor="1.00" vaporized=""/>
    <tripinfo id="up_16" depart="66.00" departLane="53o_0" departPos="5.10" departSpeed="0.00" departDelay="1.00" arrival="183.00" arrivalLane="54i_0" arrivalPos="10.00" arrivalSpeed="11.53" duration="117.00" routeLength="1015.10" waitSteps="12" timeLoss="41.01" rerouteNo="0" devices="tripinfo_up_16" vType="typeNS" speedFactor="1.00" vaporized=""/>
    <tripinfo id="down_18" depart="81.00" departLane="54o_0" departPos="5.10" departSpeed="0.00" departDelay="0.00" arrival="184.00" arrivalLane="53i_0" arrivalPos="10.00" arrivalSpeed="10.92" duration="103.00" routeLength="1015.10" waitSteps="0" timeLoss="27.04" rerouteNo="0" devices="tripinfo_down_18" vType="typeNS" speedFactor="1.00" vaporized=""/>
    <tripinfo id="up_19" depart="81.00" departLane="53o_0" departPos="5.10" departSpeed="0.00" departDelay="0.00" arrival="185.00" arrivalLane="54i_0" arrivalPos="10.00" arrivalSpeed="11.55" duration="104.00" routeLength="1015.10" waitSteps="0" timeLoss="27.83" rerouteNo="0" devices="tripinfo_up_19" vType="typeNS" speedFactor="1.00" vaporized=""/>
    <tripinfo id="down_27" depart="94.00" departLane="54o_0" departPos="5.10" departSpeed="0.00" departDelay="0.00" arrival="186.00" arrivalLane="53i_0" arrivalPos="10.00" arrivalSpeed="11.71" duration="92.00" routeLength="1015.10" waitSteps="0" timeLoss="16.11" rerouteNo="0" devices="tripinfo_down_27" vType="typeNS" speedFactor="1.00" vaporized=""/>
    <tripinfo id="up_24" depart="88.00" departLane="53o_0" departPos="5.10" departSpeed="0.00" departDelay="0.00" arrival="187.00" arrivalLane="54i_0" arrivalPos="10.00" arrivalSpeed="11.83" duration="99.00" routeLength="1015.10" waitSteps="0" timeLoss="22.65" rerouteNo="0" devices="tripinfo_up_24" vType="typeNS" speedFactor="1.00" vaporized=""/>
    <tripinfo id="up_25" depart="94.00" departLane="53o_0" departPos="5.10" departSpeed="0.00" departDelay="4.00" arrival="189.00" arrivalLane="54i_0" arrivalPos="10.00" arrivalSpeed="11.38" duration="95.00" routeLength="1015.10" waitSteps="0" timeLoss="18.41" rerouteNo="0" devices="tripinfo_up_25" vType="typeNS" speedFactor="1.00" vaporized=""/>
    <tripinfo id="up_29" depart="99.00" departLane="53o_0" departPos="5.10" departSpeed="0.00" departDelay="0.00" arrival="191.00" arrivalLane="54i_0" arrivalPos="10.00" arrivalSpeed="11.59" duration="92.00" routeLength="1015.10" waitSteps="0" timeLoss="15.17" rerouteNo="0" devices="tripinfo_up_29" vType="typeNS" speedFactor="1.00" vaporized=""/>
    <tripinfo id="down_30" depart="100.00" departLane="54o_0" departPos="5.10" departSpeed="0.00" departDelay="0.00" arrival="192.00" arrivalLane="53i_0" arrivalPos="10.00" arrivalSpeed="11.25" duration="92.00" routeLength="1015.10" waitSteps="0" timeLoss="15.72" rerouteNo="0" devices="tripinfo_down_30" vType="typeNS" speedFactor="1.00" vaporized=""/>
    <tripinfo id="up_31" depart="104.00" departLane="53o_0" departPos="5.10" departSpeed="0.00" departDelay="3.00" arrival="195.00" arrivalLane="54i_0" arrivalPos="10.00" arrivalSpeed="11.46" duration="91.00" routeLength="1015.10" waitSteps="0" timeLoss="15.01" rerouteNo="0" devices="tripinfo_up_31" vType="typeNS" speedFactor="1.00" vaporized=""/>
    <tripinfo id="down_33" depart="107.00" departLane="54o_0" departPos="5.10" departSpeed="0.00" departDelay="1.00" arrival="198.00" arrivalLane="53i_0" arrivalPos="10.00" arrivalSpeed="11.55" duration="91.00" routeLength="1015.10" waitSteps="0" timeLoss="14.23" rerouteNo="0" devices="tripinfo_down_33" vType="typeNS" speedFactor="1.00" vaporized=""/>
    <tripinfo id="up_32" depart="109.00" departLane="53o_0" departPos="5.10" departSpeed="0.00" departDelay="5.00" arrival="200.00" arrivalLane="54i_0" arrivalPos="10.00" arrivalSpeed="10.86" duration="91.00" routeLength="1015.10" waitSteps="0" timeLoss="14.83" rerouteNo="0" devices="tripinfo_up_32" vType="typeNS" speedFactor="1.00" vaporized=""/>
    <tripinfo id="down_34" depart="117.00" departLane="54o_0" departPos="5.10" departSpeed="0.00" departDelay="0.00" arrival="208.00" arrivalLane="53i_0" arrivalPos="10.00" arrivalSpeed="11.59" duration="91.00" routeLength="1015.10" waitSteps="0" timeLoss="14.33" rerouteNo="0" devices="tripinfo_down_34" vType="typeNS" speedFactor="1.00" vaporized=""/>
    <tripinfo id="up_36" depart="120.00" departLane="53o_0" departPos="5.10" departSpeed="0.00" departDelay="0.00" arrival="211.00" arrivalLane="54i_0" arrivalPos="10.00" arrivalSpeed="11.49" duration="91.00" routeLength="1015.10" waitSteps="0" timeLoss="14.85" rerouteNo="0" devices="tripinfo_up_36" vType="typeNS" speedFactor="1.00" vaporized=""/>
    <tripinfo id="up_39" depart="131.00" departLane="53o_0" departPos="5.10" departSpeed="0.00" departDelay="0.00" arrival="222.00" arrivalLane="54i_0" arrivalPos="10.00" arrivalSpeed="11.47" duration="91.00" routeLength="1015.10" waitSteps="0" timeLoss="14.69" rerouteNo="0" devices="tripinfo_up_39" vType="typeNS" speedFactor="1.00" vaporized=""/>
    <tripinfo id="down_41" depart="133.00" departLane="54o_0" departPos="5.10" departSpeed="0.00" departDelay="0.00" arrival="224.00" arrivalLane="53i_0" arrivalPos="10.00" arrivalSpeed="11.70" duration="91.00" routeLength="1015.10" waitSteps="0" timeLoss="14.67" rerouteNo="0" devices="tripinfo_down_41" vType="typeNS" speedFactor="1.00" vaporized=""/>
    <tripinfo id="left_20" depart="82.00" departLane="52o_0" departPos="5.10" departSpeed="0.00" departDelay="0.00" arrival="236.00" arrivalLane="51i_0" arrivalPos="10.00" arrivalSpeed="11.71" duration="154.00" routeLength="1015.10" waitSteps="52" timeLoss="77.60" rerouteNo="0" devices="tripinfo_left_20" vType="typeWE" speedFactor="1.00" vaporized=""/>
    <tripinfo id="right_22" depart="86.00" departLane="51o_0" departPos="5.10" departSpeed="0.00" departDelay="0.00" arrival="236.00" arrivalLane="52i_0" arrivalPos="10.00" arrivalSpeed="11.29" duration="150.00" routeLength="1015.10" waitSteps="48" timeLoss="74.24" rerouteNo="0" devices="tripinfo_right_22" vType="typeWE" speedFactor="1.00" vaporized=""/>
    <tripinfo id="left_21" depart="87.00" departLane="52o_0" departPos="5.10" departSpeed="0.00" departDelay="4.00" arrival="238.00" arrivalLane="51i_0" arrivalPos="10.00" arrivalSpeed="11.44" duration="151.00" routeLength="1015.10" waitSteps="48" timeLoss="75.03" rerouteNo="0" devices="tripinfo_left_21" vType="typeWE" speedFactor="1.00" vaporized=""/>
    <tripinfo id="right_28" depart="98.00" departLane="51o_0" departPos="5.10" departSpeed="0.00" departDelay="0.00" arrival="239.00" arrivalLane="52i_0" arrivalPos="10.00" arrivalSpeed="11.82" duration="141.00" routeLength="1015.10" waitSteps="37" timeLoss="64.37" rerouteNo="0" devices="tripinfo_right_28" vType="typeWE" speedFactor="1.00" vaporized=""/>
    <tripinfo id="right_40" depart="133.00" departLane="51o_0" departPos="5.10" departSpeed="0.00" departDelay="0.00" arrival="240.00" arrivalLane="52i_0" arrivalPos="10.00" arrivalSpeed="11.39" duration="107.00" routeLength="1015.10" waitSteps="4" timeLoss="31.29" rerouteNo="0" devices="tripinfo_right_40" vType="typeWE" speedFactor="1.00" vaporized=""/>
    <tripinfo id="left_23" depart="92.00" departLane="52o_0" departPos="5.10" departSpeed="0.00" departDelay="4.00" arrival="241.00" arrivalLane="51i_0" arrivalPos="10.00" arrivalSpeed="11.53" duration="149.00" routeLength="1015.10" waitSteps="45" timeLoss="72.70" rerouteNo="0" devices="tripinfo_left_23" vType="typeWE" speedFactor="1.00" vaporized=""/>
    <tripinfo id="right_44" depart="138.00" departLane="51o_0" departPos="5.10" departSpeed="0.00" departDelay="2.00" arrival="242.00" arrivalLane="52i_0" arrivalPos="10.00" arrivalSpeed="10.94" duration="104.00" routeLength="1015.10" waitSteps="2" timeLoss="27.90" rerouteNo="0" devices="tripinfo_right_44" vType="typeWE" speedFactor="1.00" vaporized=""/>
    <tripinfo id="left_26" depart="97.00" departLane="52o_0" departPos="5.10" departSpeed="0.00" departDelay="5.00" arrival="243.00" arrivalLane="51i_0" arrivalPos="10.00" arrivalSpeed="11.71" duration="146.00" routeLength="1015.10" waitSteps="41" timeLoss="69.49" rerouteNo="0" devices="tripinfo_left_26" vType="typeWE" speedFactor="1.00" vaporized=""/>
    <tripinfo id="left_35" depart="121.00" departLane="52o_0" departPos="5.10" departSpeed="0.00" departDelay="1.00" arrival="245.00" arrivalLane="51i_0" arrivalPos="10.00" arrivalSpeed="11.67" duration="124.00" routeLength="1015.10" waitSteps="18" timeLoss="47.24" rerouteNo="0" devices="tripinfo_left_35" vType="typeWE" speedFactor="1.00" vaporized=""/>
    <tripinfo id="left_37" depart="129.00" departLane="52o_0" departPos="5.10" departSpeed="0.00" departDelay="0.00" arrival="246.00" arrivalLane="51i_0" arrivalPos="10.00" arrivalSpeed="11.40" duration="117.00" routeLength="1015.10" waitSteps="12" timeLoss="41.15" rerouteNo="0" devices="tripinfo_left_37" vType="typeWE" speedFactor="1.00" vaporized=""/>
    <tripinfo id="right_50" depart="156.00" departLane="51o_0" departPos="5.10" departSpeed="0.00" departDelay="0.00" arrival="248.00" arrivalLane="52i_0" arrivalPos="10.00" arrivalSpeed="10.93" duration="92.00" routeLength="1015.10" waitSteps="0" timeLoss="15.84" rerouteNo="0" devices="tripinfo_right_50" vType="typeWE" speedFactor="1.00" vaporized=""/>
    <tripinfo id="left_38" depart="134.00" departLane="52o_0" departPos="5.10" departSpeed="0.00" departDelay="4.00" arrival="248.00" arrivalLane="51i_0" arrivalPos="10.00" arrivalSpeed="11.56" duration="114.00" routeLength="1015.10" waitSteps="10" timeLoss="37.86" rerouteNo="0" devices="tripinfo_left_38" vType="typeWE" speedFactor="1.00" vaporized=""/>
    <tripinfo id="left_42" depart="139.00" departLane="52o_0" departPos="5.10" departSpeed="0.00" departDelay="5.00" arrival="250.00" arrivalLane="51i_0" arrivalPos="10.00" arrivalSpeed="11.52" duration="111.00" routeLength="1015.10" waitSteps="7" timeLoss="34.73" rerouteNo="0" devices="tripinfo_left_42" vType="typeWE" speedFactor="1.00" vaporized=""/>
    <tripinfo id="left_46" depart="145.00" departLane="52o_0" departPos="5.10" departSpeed="0.00" departDelay="5.00" arrival="252.00" arrivalLane="51i_0" arrivalPos="10.00" arrivalSpeed="11.61" duration="107.00" routeLength="1015.10" waitSteps="3" timeLoss="30.49" rerouteNo="0" devices="tripinfo_left_46" vType="typeWE" speedFactor="1.00" vaporized=""/>
    <tripinfo id="left_47" depart="150.00" departLane="52o_0" departPos="5.10" departSpeed="0.00" departDelay="7.00" arrival="254.00" arrivalLane="51i_0" arrivalPos="10.00" arrivalSpeed="11.57" duration="104.00" routeLength="1015.10" waitSteps="0" timeLoss="28.05" rerouteNo="0" devices="tripinfo_left_47" vType="typeWE" speedFactor="1.00" vaporized=""/>
    <tripinfo id="right_53" depart="168.00" departLane="51o_0" departPos="5.10" departSpeed="0.00" departDelay="0.00" arrival="260.00" arrivalLane="52i_0" arrivalPos="10.00" arrivalSpeed="11.53" duration="92.00" routeLength="1015.10" waitSteps="0" timeLoss="15.77" rerouteNo="0" devices="tripinfo_right_53" vType="typeWE" speedFactor="1.00" vaporized=""/>
    <tripinfo id="left_58" depart="182.00" departLane="52o_0" departPos="5.10" departSpeed="0.00" departDelay="0.00" arrival="273.00" arrivalLane="51i_0" arrivalPos="10.00" arrivalSpeed="11.68" duration="91.00" routeLength="1015.10" waitSteps="0" timeLoss="14.95" rerouteNo="0" devices="tripinfo_left_58" vType="typeWE" speedFactor="1.00" vaporized=""/>
    <tripinfo id="left_59" depart="187.00" departLane="52o_0" departPos="5.10" departSpeed="0.00" departDelay="2.00" arrival="278.00" arrivalLane="51i_0" arrivalPos="10.00" arrivalSpeed="11.74" duration="91.00" routeLength="1015.10" waitSteps="0" timeLoss="14.80" rerouteNo="0" devices="tripinfo_left_59" vType="typeWE" speedFactor="1.00" vaporized=""/>
    <tripinfo id="right_61" depart="187.00" departLane="51o_0" departPos="5.10" departSpeed="0.00" departDelay="0.00" arrival="279.00" arrivalLane="52i_0" arrivalPos="10.00" arrivalSpeed="11.55" duration="92.00" routeLength="1015.10" waitSteps="0" timeLoss="16.10" rerouteNo="0" devices="tripinfo_right_61" vType="typeWE" speedFactor="1.00" vaporized=""/>
    <tripinfo id="left_60" depart="192.00" departLane="52o_0" departPos="5.10" departSpeed="0.00" departDelay="6.00" arrival="283.00" arrivalLane="51i_0" arrivalPos="10.00" arrivalSpeed="11.30" duration="91.00" routeLength="1015.10" waitSteps="0" timeLoss="14.46" rerouteNo="0" devices="tripinfo_left_60" vType="typeWE" speedFactor="1.00" vaporized=""/>
    <tripinfo id="right_63" depart="196.00" departLane="51o_0" departPos="5.10" departSpeed="0.00" departDelay="0.00" arrival="287.00" arrivalLane="52i_0" arrivalPos="10.00" arrivalSpeed="11.38" duration="91.00" routeLength="1015.10" waitSteps="0" timeLoss="15.05" rerouteNo="0" devices="tripinfo_right_63" vType="typeWE" speedFactor="1.00" vaporized=""/>
    <tripinfo id="up_43" depart="136.00" departLane="53o_0" departPos="5.10" departSpeed="0.00" departDelay="1.00" arrival="296.00" arrivalLane="54i_0" arrivalPos="10.00" arrivalSpeed="11.59" duration="160.00" routeLength="1015.10" waitSteps="60" timeLoss="83.80" rerouteNo="0" devices="tripinfo_up_43" vType="typeNS" speedFactor="1.00" vaporized=""/>
    <tripinfo id="down_49" depart="155.00" departLane="54o_0" departPos="5.10" departSpeed="0.00" departDelay="0.00" arrival="296.00" arrivalLane="53i_0" arrivalPos="10.00" arrivalSpeed="11.58" duration="141.00" routeLength="1015.10" waitSteps="39" timeLoss="64.60" rerouteNo="0" devices="tripinfo_down_49" vType="typeNS" speedFactor="1.00" vaporized=""/>
    <tripinfo id="down_51" depart="162.00" departLane="54o_0" departPos="5.10" departSpeed="0.00" departDelay="0.00" arrival="297.00" arrivalLane="53i_0" arrivalPos="10.00" arrivalSpeed="10.95" duration="135.00" routeLength="1015.10" waitSteps="32" timeLoss="59.03" rerouteNo="0" devices="tripinfo_down_51" vType="typeNS" speedFactor="1.00" vaporized=""/>
    <tripinfo id="up_45" depart="141.00" departLane="53o_0" departPos="5.10" departSpeed="0.00" departDelay="5.00" arrival="298.00" arrivalLane="54i_0" arrivalPos="10.00" arrivalSpeed="11.37" duration="157.00" routeLength="1015.10" waitSteps="54" timeLoss="81.05" rerouteNo="0" devices="tripinfo_up_45" vType="typeNS" speedFactor="1.00" vaporized=""/>
    <tripinfo id="up_48" depart="147.00" departLane="53o_0" departPos="5.10" departSpeed="0.00" departDelay="1.00" arrival="300.00" arrivalLane="54i_0" arrivalPos="10.00" arrivalSpeed="11.52" duration="153.00" routeLength="1015.10" waitSteps="50" timeLoss="77.13" rerouteNo="0" devices="tripinfo_up_48" vType="typeNS" speedFactor="1.00" vaporized=""/>
    <tripinfo id="down_52" depart="167.00" departLane="54o_0" departPos="5.10" departSpeed="0.00" departDelay="4.00" arrival="301.00" arrivalLane="53i_0" arrivalPos="10.00" arrivalSpeed="11.70" duration="134.00" routeLength="1015.10" waitSteps="31" timeLoss="57.42" rerouteNo="0" devices="tripinfo_down_52" vType="typeNS" speedFactor="1.00" vaporized=""/>
    <tripinfo id="up_54" depart="169.00" departLane="53o_0" departPos="5.10" departSpeed="0.00" departDelay="0.00" arrival="303.00" arrivalLane="54i_0" arrivalPos="10.00" arrivalSpeed="11.39" duration="134.00" routeLength="1015.10" waitSteps="29" timeLoss="57.36" rerouteNo="0" devices="tripinfo_up_54" vType="typeNS" speedFactor="1.00" vaporized=""/>
    <tripinfo id="down_55" depart="173.00" departLane="54o_0" departPos="5.10" departSpeed="0.00" departDelay="2.00" arrival="303.00" arrivalLane="53i_0" arrivalPos="10.00" arrivalSpeed="11.25" duration="130.00" routeLength="1015.10" waitSteps="26" timeLoss="53.80" rerouteNo="0" devices="tripinfo_down_55" vType="typeNS" speedFactor="1.00" vaporized=""/>
    <tripinfo id="up_56" depart="174.00" departLane="53o_0" departPos="5.10" departSpeed="0.00" departDelay="3.00" arrival="304.00" arrivalLane="54i_0" arrivalPos="10.00" arrivalSpeed="10.80" duration="130.00" routeLength="1015.10" waitSteps="26" timeLoss="54.04" rerouteNo="0" devices="tripinfo_up_56" vType="typeNS" speedFactor="1.00" vaporized=""/>
    <tripinfo id="down_65" depart="204.00" departLane="54o_0" departPos="5.10" departSpeed="0.00" departDelay="0.00" arrival="305.00" arrivalLane="53i_0" arrivalPos="10.00" arrivalSpeed="11.35" duration="101.00" routeLength="1015.10" waitSteps="0" timeLoss="24.80" rerouteNo="0" devices="tripinfo_down_65" vType="typeNS" speedFactor="1.00" vaporized=""/>
    <tripinfo id="up_57" depart="182.00" departLane="53o_0" departPos="5.10" departSpeed="0.00" departDelay="2.00" arrival="307.00" arrivalLane="54i_0" arrivalPos="10.00" arrivalSpeed="11.68" duration="125.00" routeLength="1015.10" waitSteps="19" timeLoss="48.42" rerouteNo="0" devices="tripinfo_up_57" vType="typeNS" speedFactor="1.00" vaporized=""/>
    <tripinfo id="down_67" depart="213.00" departLane="54o_0" departPos="5.10" departSpeed="0.00" departDelay="0.00" arrival="307.00" arrivalLane="53i_0" arrivalPos="10.00" arrivalSpeed="11.21" duration="94.00" routeLength="1015.10" waitSteps="0" timeLoss="17.53" rerouteNo="0" devices="tripinfo_down_67" vType="typeNS" speedFactor="1.00" vaporized=""/>
    <tripinfo id="up_66" depart="209.00" departLane="53o_0" departPos="5.10" departSpeed="0.00" departDelay="0.00" arrival="308.00" arrivalLane="54i_0" arrivalPos="10.00" arrivalSpeed="10.89" duration="99.00" routeLength="1015.10" waitSteps="0" timeLoss="22.99" rerouteNo="0" devices="tripinfo_up_66" vType="typeNS" speedFactor="1.00" vaporized=""/>
    <tripinfo id="down_68" depart="218.00" departLane="54o_0" departPos="5.10" departSpeed="0.00" departDelay="3.00" arrival="309.00" arrivalLane="53i_0" arrivalPos="10.00" arrivalSpeed="11.70" duration="91.00" routeLength="1015.10" waitSteps="0" timeLoss="14.43" rerouteNo="0" devices="tripinfo_down_68" vType="typeNS" speedFactor="1.00" vaporized=""/>
    <tripinfo id="down_70" depart="226.00" departLane="54o_0" departPos="5.10" departSpeed="0.00" departDelay="0.00" arrival="316.00" arrivalLane="53i_0" arrivalPos="10.00" arrivalSpeed="10.74" duration="90.00" routeLength="1015.10" waitSteps="0" timeLoss="13.87" rerouteNo="0" devices="tripinfo_down_70" vType="typeNS" speedFactor="1.00" vaporized=""/>
    <tripinfo id="up_69" depart="224.00" departLane="53o_0" departPos="5.10" departSpeed="0.00" departDelay="1.00" arrival="316.00" arrivalLane="54i_0" arrivalPos="10.00" arrivalSpeed="11.51" duration="92.00" routeLength="1015.10" waitSteps="0" timeLoss="15.70" rerouteNo="0" devices="tripinfo_up_69" vType="typeNS" speedFactor="1.00" vaporized=""/>
    <tripinfo id="up_71" depart="232.00" departLane="53o_0" departPos="5.10" departSpeed="0.00" departDelay="0.00" arrival="324.00" arrivalLane="54i_0" arrivalPos="10.00" arrivalSpeed="11.46" duration="92.00" routeLength="1015.10" waitSteps="0" timeLoss="15.79" rerouteNo="0" devices="tripinfo_up_71" vType="typeNS" speedFactor="1.00" vaporized=""/>
    <tripinfo id="up_72" depart="237.00" departLane="53o_0" departPos="5.10" departSpeed="0.00" departDelay="2.00" arrival="330.00" arrivalLane="54i_0" arrivalPos="10.00" arrivalSpeed="11.77" duration="93.00" routeLength="1015.10" waitSteps="0" timeLoss="16.47" rerouteNo="0" devices="tripinfo_up_72" vType="typeNS" speedFactor="1.00" vaporized=""/>
    <tripinfo id="up_76" depart="243.00" departLane="53o_0" departPos="5.10" departSpeed="0.00" departDelay="2.00" arrival="334.00" arrivalLane="54i_0" arrivalPos="10.00" arrivalSpeed="11.35" duration="91.00" routeLength="1015.10" waitSteps="0" timeLoss="15.06" rerouteNo="0" devices="tripinfo_up_76" vType="typeNS" speedFactor="1.00" vaporized=""/>
    <tripinfo id="down_78" depart="243.00" departLane="54o_0" departPos="5.10" departSpeed="0.00" departDelay="0.00" arrival="334.00" arrivalLane="53i_0" arrivalPos="10.00" arrivalSpeed="11.34" duration="91.00" routeLength="1015.10" waitSteps="0" timeLoss="14.82" rerouteNo="0" devices="tripinfo_down_78" vType="typeNS" speedFactor="1.00" vaporized=""/>
    <tripinfo id="down_80" depart="248.00" departLane="54o_0" departPos="5.10" departSpeed="0.00" departDelay="0.00" arrival="339.00" arrivalLane="53i_0" arrivalPos="10.00" arrivalSpeed="11.49" duration="91.00" routeLength="1015.10" waitSteps="0" timeLoss="14.65" rerouteNo="0" devices="tripinfo_down_80" vType="typeNS" speedFactor="1.00" vaporized=""/>
    <tripinfo id="up_77" depart="248.00" departLane="53o_0" departPos="5.10" departSpeed="0.00" departDelay="6.00" arrival="340.00" arrivalLane="54i_0" arrivalPos="10.00" arrivalSpeed="11.71" duration="92.00" routeLength="1015.10" waitSteps="0" timeLoss="16.04" rerouteNo="0" devices="tripinfo_up_77" vType="typeNS" speedFactor="1.00" vaporized=""/>
    <tripinfo id="up_79" depart="253.00" departLane="53o_0" departPos="5.10" departSpeed="0.00" departDelay="6.00" arrival="345.00" arrivalLane="54i_0" arrivalPos="10.00" arrivalSpeed="11.68" duration="92.00" routeLength="1015.10" waitSteps="0" timeLoss="15.62" rerouteNo="0" devices="tripinfo_up_79" vType="typeNS" speedFactor="1.00" vaporized=""/>
    <tripinfo id="left_62" depart="197.00" departLane="52o_0" departPos="5.10" departSpeed="0.00" departDelay="6.00" arrival="357.00" arrivalLane="51i_0" arrivalPos="10.00" arrivalSpeed="11.42" duration="160.00" routeLength="1015.10" waitSteps="60" timeLoss="83.17" rerouteNo="0" devices="tripinfo_left_62" vType="typeWE" speedFactor="1.00" vaporized=""/>
    <tripinfo id="right_75" depart="246.00" departLane="51o_0" departPos="5.10" departSpeed="0.00" departDelay="6.00" arrival="357.00" arrivalLane="52i_0" arrivalPos="10.00" arrivalSpeed="11.54" duration="111.00" routeLength="1015.10" waitSteps="8" timeLoss="34.53" rerouteNo="0" devices="tripinfo_right_75" vType="typeWE" speedFactor="1.00" vaporized=""/>
    <tripinfo id="left_64" depart="202.00" departLane="52o_0" departPos="5.10" departSpeed="0.00" departDelay="0.00" arrival="359.00" arrivalLane="51i_0" arrivalPos="10.00" arrivalSpeed="11.41" duration="157.00" routeLength="1015.10" waitSteps="53" timeLoss="80.96" rerouteNo="0" devices="tripinfo_left_64" vType="typeWE" speedFactor="1.00" vaporized=""/>
    <tripinfo id="left_73" depart="240.00" departLane="52o_0" departPos="5.10" departSpeed="0.00" departDelay="3.00" arrival="361.00" arrivalLane="51i_0" arrivalPos="10.00" arrivalSpeed="11.79" duration="121.00" routeLength="1015.10" waitSteps="16" timeLoss="44.70" rerouteNo="0" devices="tripinfo_left_73" vType="typeWE" speedFactor="1.00" vaporized=""/>
    <tripinfo id="left_74" depart="245.00" departLane="52o_0" departPos="5.10" departSpeed="0.00" departDelay="6.00" arrival="363.00" arrivalLane="51i_0" arrivalPos="10.00" arrivalSpeed="11.16" duration="118.00" routeLength="1015.10" waitSteps="14" timeLoss="41.89" rerouteNo="0" devices="tripinfo_left_74" vType="typeWE" speedFactor="1.00" vaporized=""/>
    <tripinfo id="left_82" depart="252.00" departLane="52o_0" departPos="5.10" departSpeed="0.00" departDelay="0.00" arrival="365.00" arrivalLane="51i_0" arrivalPos="10.00" arrivalSpeed="11.58" duration="113.00" routeLength="1015.10" waitSteps="8" timeLoss="37.09" rerouteNo="0" devices="tripinfo_left_82" vType="typeWE" speedFactor="1.00" vaporized=""/>