<?xml version="1.0" encoding="UTF-8"?>

<!-- generated on Mon Apr 30 16:18:38 2018 by SUMO Version 0.32.0
<?xml version="1.0" encoding="UTF-8"?>

<configuration xmlns:xsi="http://www.w3.org/2001/XMLSchema-instance" xsi:noNamespaceSchemaLocation="http://sumo.dlr.de/xsd/sumoConfiguration.xsd">

    <input>
        <net-file value="data/cross.net.xml"/>
        <route-files value="data/cross.rou.xml"/>
        <additional-files value="data/cross.det.xml"/>
    </input>

    <output>
        <summary-output value="data/cross.out"/>
        <tripinfo-output value="output/tripinfo175.xml"/>
    </output>

    <time>
        <begin value="0"/>
    </time>

    <report>
        <verbose value="true"/>
        <duration-log.statistics value="true"/>
        <no-step-log value="true"/>
    </report>

    <traci_server>
        <remote-port value="53483"/>
    </traci_server>

</configuration>
-->

<tripinfos xmlns:xsi="http://www.w3.org/2001/XMLSchema-instance" xsi:noNamespaceSchemaLocation="http://sumo.dlr.de/xsd/tripinfo_file.xsd">
    <tripinfo id="right_0" depart="0.00" departLane="51o_0" departPos="5.10" departSpeed="0.00" departDelay="0.00" arrival="91.00" arrivalLane="52i_0" arrivalPos="10.00" arrivalSpeed="11.05" duration="91.00" routeLength="1015.10" waitSteps="0" timeLoss="14.82" rerouteNo="0" devices="tripinfo_right_0" vType="typeWE" speedFactor="1.00" vaporized=""/>
    <tripinfo id="right_1" depart="5.00" departLane="51o_0" departPos="5.10" departSpeed="0.00" departDelay="3.00" arrival="95.00" arrivalLane="52i_0" arrivalPos="10.00" arrivalSpeed="11.76" duration="90.00" routeLength="1015.10" waitSteps="0" timeLoss="13.71" rerouteNo="0" devices="tripinfo_right_1" vType="typeWE" speedFactor="1.00" vaporized=""/>
    <tripinfo id="left_4" depart="7.00" departLane="52o_0" departPos="5.10" departSpeed="0.00" departDelay="0.00" arrival="98.00" arrivalLane="51i_0" arrivalPos="10.00" arrivalSpeed="11.72" duration="91.00" routeLength="1015.10" waitSteps="0" timeLoss="14.89" rerouteNo="0" devices="tripinfo_left_4" vType="typeWE" speedFactor="1.00" vaporized=""/>
    <tripinfo id="left_5" depart="12.00" departLane="52o_0" departPos="5.10" departSpeed="0.00" departDelay="3.00" arrival="103.00" arrivalLane="51i_0" arrivalPos="10.00" arrivalSpeed="11.48" duration="91.00" routeLength="1015.10" waitSteps="0" timeLoss="15.02" rerouteNo="0" devices="tripinfo_left_5" vType="typeWE" speedFactor="1.00" vaporized=""/>
    <tripinfo id="left_10" depart="19.00" departLane="52o_0" departPos="5.10" departSpeed="0.00" departDelay="0.00" arrival="110.00" arrivalLane="51i_0" arrivalPos="10.00" arrivalSpeed="11.15" duration="91.00" routeLength="1015.10" waitSteps="0" timeLoss="14.41" rerouteNo="0" devices="tripinfo_left_10" vType="typeWE" speedFactor="1.00" vaporized=""/>
    <tripinfo id="right_11" depart="22.00" departLane="51o_0" departPos="5.10" departSpeed="0.00" departDelay="0.00" arrival="114.00" arrivalLane="52i_0" arrivalPos="10.00" arrivalSpeed="11.35" duration="92.00" routeLength="1015.10" waitSteps="0" timeLoss="15.77" rerouteNo="0" devices="tripinfo_right_11" vType="typeWE" speedFactor="1.00" vaporized=""/>
    <tripinfo id="left_14" depart="28.00" departLane="52o_0" departPos="5.10" departSpeed="0.00" departDelay="0.00" arrival="119.00" arrivalLane="51i_0" arrivalPos="10.00" arrivalSpeed="10.92" duration="91.00" routeLength="1015.10" waitSteps="0" timeLoss="14.81" rerouteNo="0" devices="tripinfo_left_14" vType="typeWE" speedFactor="1.00" vaporized=""/>
    <tripinfo id="left_16" depart="33.00" departLane="52o_0" departPos="5.10" departSpeed="0.00" departDelay="3.00" arrival="124.00" arrivalLane="51i_0" arrivalPos="10.00" arrivalSpeed="11.57" duration="91.00" routeLength="1015.10" waitSteps="0" timeLoss="14.79" rerouteNo="0" devices="tripinfo_left_16" vType="typeWE" speedFactor="1.00" vaporized=""/>
    <tripinfo id="right_17" depart="36.00" departLane="51o_0" departPos="5.10" departSpeed="0.00" departDelay="0.00" arrival="128.00" arrivalLane="52i_0" arrivalPos="10.00" arrivalSpeed="11.53" duration="92.00" routeLength="1015.10" waitSteps="0" timeLoss="15.80" rerouteNo="0" devices="tripinfo_right_17" vType="typeWE" speedFactor="1.00" vaporized=""/>
    <tripinfo id="left_19" depart="38.00" departLane="52o_0" departPos="5.10" departSpeed="0.00" departDelay="0.00" arrival="129.00" arrivalLane="51i_0" arrivalPos="10.00" arrivalSpeed="11.43" duration="91.00" routeLength="1015.10" waitSteps="0" timeLoss="14.38" rerouteNo="0" devices="tripinfo_left_19" vType="typeWE" speedFactor="1.00" vaporized=""/>
    <tripinfo id="right_18" depart="41.00" departLane="51o_0" departPos="5.10" departSpeed="0.00" departDelay="3.00" arrival="133.00" arrivalLane="52i_0" arrivalPos="10.00" arrivalSpeed="11.60" duration="92.00" routeLength="1015.10" waitSteps="0" timeLoss="15.46" rerouteNo="0" devices="tripinfo_right_18" vType="typeWE" speedFactor="1.00" vaporized=""/>
    <tripinfo id="left_21" depart="48.00" departLane="52o_0" departPos="5.10" departSpeed="0.00" departDelay="0.00" arrival="139.00" arrivalLane="51i_0" arrivalPos="10.00" arrivalSpeed="11.43" duration="91.00" routeLength="1015.10" waitSteps="0" timeLoss="14.80" rerouteNo="0" devices="tripinfo_left_21" vType="typeWE" speedFactor="1.00" vaporized=""/>
    <tripinfo id="up_2" depart="2.00" departLane="53o_0" departPos="5.10" departSpeed="0.00" departDelay="0.00" arrival="148.00" arrivalLane="54i_0" arrivalPos="10.00" arrivalSpeed="11.50" duration="146.00" routeLength="1015.10" waitSteps="45" timeLoss="70.26" rerouteNo="0" devices="tripinfo_up_2" vType="typeNS" speedFactor="1.00" vaporized=""/>
    <tripinfo id="down_6" depart="10.00" departLane="54o_0" departPos="5.10" departSpeed="0.00" departDelay="0.00" arrival="148.00" arrivalLane="53i_0" arrivalPos="10.00" arrivalSpeed="11.41" duration="138.00" routeLength="1015.10" waitSteps="36" timeLoss="62.24" rerouteNo="0" devices="tripinfo_down_6" vType="typeNS" speedFactor="1.00" vaporized=""/>
    <tripinfo id="up_3" depart="7.00" departLane="53o_0" departPos="5.10" departSpeed="0.00" departDelay="3.00" arrival="150.00" arrivalLane="54i_0" arrivalPos="10.00" arrivalSpeed="11.56" duration="143.00" routeLength="1015.10" waitSteps="41" timeLoss="67.06" rerouteNo="0" devices="tripinfo_up_3" vType="typeNS" speedFactor="1.00" vaporized=""/>
    <tripinfo id="down_9" depart="17.00" departLane="54o_0" departPos="5.10" departSpeed="0.00" departDelay="0.00" arrival="150.00" arrivalLane="53i_0" arrivalPos="10.00" arrivalSpeed="11.58" duration="133.00" routeLength="1015.10" waitSteps="30" timeLoss="57.05" rerouteNo="0" devices="tripinfo_down_9" vType="typeNS" speedFactor="1.00" vaporized=""/>
    <tripinfo id="up_7" depart="14.00" departLane="53o_0" departPos="5.10" departSpeed="0.00" departDelay="0.00" arrival="152.00" arrivalLane="54i_0" arrivalPos="10.00" arrivalSpeed="11.56" duration="138.00" routeLength="1015.10" waitSteps="35" timeLoss="61.94" rerouteNo="0" devices="tripinfo_up_7" vType="typeNS" speedFactor="1.00" vaporized=""/>
    <tripinfo id="down_13" depart="26.00" departLane="54o_0" departPos="5.10" departSpeed="0.00" departDelay="0.00" arrival="153.00" arrivalLane="53i_0" arrivalPos="10.00" arrivalSpeed="11.48" duration="127.00" routeLength="1015.10" waitSteps="24" timeLoss="50.62" rerouteNo="0" devices="tripinfo_down_13" vType="typeNS" speedFactor="1.00" vaporized=""/>
    <tripinfo id="up_8" depart="19.00" departLane="53o_0" departPos="5.10" departSpeed="0.00" departDelay="4.00" arrival="154.00" arrivalLane="54i_0" arrivalPos="10.00" arrivalSpeed="11.31" duration="135.00" routeLength="1015.10" waitSteps="32" timeLoss="58.73" rerouteNo="0" devices="tripinfo_up_8" vType="typeNS" speedFactor="1.00" vaporized=""/>
    <tripinfo id="down_23" depart="63.00" departLane="54o_0" departPos="5.10" departSpeed="0.00" departDelay="0.00" arrival="155.00" arrivalLane="53i_0" arrivalPos="10.00" arrivalSpeed="11.44" duration="92.00" routeLength="1015.10" waitSteps="0" timeLoss="16.04" rerouteNo="0" devices="tripinfo_down_23" vType="typeNS" speedFactor="1.00" vaporized=""/>
    <tripinfo id="up_12" depart="24.00" departLane="53o_0" departPos="5.10" departSpeed="0.00" departDelay="1.00" arrival="157.00" arrivalLane="54i_0" arrivalPos="10.00" arrivalSpeed="11.77" duration="133.00" routeLength="1015.10" waitSteps="28" timeLoss="56.56" rerouteNo="0" devices="tripinfo_up_12" vType="typeNS" speedFactor="1.00" vaporized=""/>
    <tripinfo id="up_15" depart="29.00" departLane="53o_0" departPos="5.10" departSpeed="0.00" departDelay="0.00" arrival="159.00" arrivalLane="54i_0" arrivalPos="10.00" arrivalSpeed="11.61" duration="130.00" routeLength="1015.10" waitSteps="22" timeLoss="53.38" rerouteNo="0" devices="tripinfo_up_15" vType="typeNS" speedFactor="1.00" vaporized=""/>
    <tripinfo id="up_20" depart="45.00" departLane="53o_0" departPos="5.10" departSpeed="0.00" departDelay="0.00" arrival="161.00" arrivalLane="54i_0" arrivalPos="10.00" arrivalSpeed="11.66" duration="116.00" routeLength="1015.10" waitSteps="11" timeLoss="39.27" rerouteNo="0" devices="tripinfo_up_20" vType="typeNS" speedFactor="1.00" vaporized=""/>
    <tripinfo id="up_22" depart="50.00" departLane="53o_0" departPos="5.10" departSpeed="0.00" departDelay="0.00" arrival="162.00" arrivalLane="54i_0" arrivalPos="10.00" arrivalSpeed="11.23" duration="112.00" routeLength="1015.10" waitSteps="6" timeLoss="36.05" rerouteNo="0" devices="tripinfo_up_22" vType="typeNS" speedFactor="1.00" vaporized=""/>
    <tripinfo id="right_26" depart="69.00" departLane="51o_0" departPos="5.10" departSpeed="0.00" departDelay="0.00" arrival="171.00" arrivalLane="52i_0" arrivalPos="10.00" arrivalSpeed="11.17" duration="102.00" routeLength="1015.10" waitSteps="0" timeLoss="25.52" rerouteNo="0" devices="tripinfo_right_26" vType="typeWE" speedFactor="1.00" vaporized=""/>
    <tripinfo id="left_24" depart="67.00" departLane="52o_0" departPos="5.10" departSpeed="0.00" departDelay="0.00" arrival="172.00" arrivalLane="51i_0" arrivalPos="10.00" arrivalSpeed="11.56" duration="105.00" routeLength="1015.10" waitSteps="2" timeLoss="28.56" rerouteNo="0" devices="tripinfo_left_24" vType="typeWE" speedFactor="1.00" vaporized=""/>
    <tripinfo id="left_25" depart="72.00" departLane="52o_0" departPos="5.10" departSpeed="0.00" departDelay="4.00" arrival="173.00" arrivalLane="51i_0" arrivalPos="10.00" arrivalSpeed="10.93" duration="101.00" routeLength="1015.10" waitSteps="0" timeLoss="24.99" rerouteNo="0" devices="tripinfo_left_25" vType="typeWE" speedFactor="1.00" vaporized=""/>
    <tripinfo id="right_28" depart="76.00" departLane="51o_0" departPos="5.10" departSpeed="0.00" departDelay="0.00" arrival="173.00" arrivalLane="52i_0" arrivalPos="10.00" arrivalSpeed="11.55" duration="97.00" routeLength="1015.10" waitSteps="0" timeLoss="20.43" rerouteNo="0" devices="tripinfo_right_28" vType="typeWE" speedFactor="1.00" vaporized=""/>
    <tripinfo id="left_27" depart="77.00" departLane="52o_0" departPos="5.10" departSpeed="0.00" departDelay="8.00" arrival="175.00" arrivalLane="51i_0" arrivalPos="10.00" arrivalSpeed="11.44" duration="98.00" routeLength="1015.10" waitSteps="0" timeLoss="22.21" rerouteNo="0" devices="tripinfo_left_27" vType="typeWE" speedFactor="1.00" vaporized=""/>
    <tripinfo id="right_32" depart="85.00" departLane="51o_0" departPos="5.10" departSpeed="0.00" departDelay="0.00" arrival="176.00" arrivalLane="52i_0" arrivalPos="10.00" arrivalSpeed="11.50" duration="91.00" routeLength="1015.10" waitSteps="0" timeLoss="14.18" rerouteNo="0" devices="tripinfo_right_32" vType="typeWE" speedFactor="1.00" vaporized=""/>
    <tripinfo id="left_29" depart="82.00" departLane="52o_0" departPos="5.10" departSpeed="0.00" departDelay="6.00" arrival="177.00" arrivalLane="51i_0" arrivalPos="10.00" arrivalSpeed="11.49" duration="95.00" routeLength="1015.10" waitSteps="0" timeLoss="18.91" rerouteNo="0" devices="tripinfo_left_29" vType="typeWE" speedFactor="1.00" vaporized=""/>
    <tripinfo id="left_31" depart="87.00" departLane="52o_0" departPos="5.10" departSpeed="0.00" departDelay="6.00" arrival="179.00" arrivalLane="51i_0" arrivalPos="10.00" arrivalSpeed="11.38" duration="92.00" routeLength="1015.10" waitSteps="0" timeLoss="15.61" rerouteNo="0" devices="tripinfo_left_31" vType="typeWE" speedFactor="1.00" vaporized=""/>
    <tripinfo id="left_33" depart="96.00" departLane="52o_0" departPos="5.10" departSpeed="0.00" departDelay="0.00" arrival="187.00" arrivalLane="51i_0" arrivalPos="10.00" arrivalSpeed="11.35" duration="91.00" routeLength="1015.10" waitSteps="0" timeLoss="14.66" rerouteNo="0" devices="tripinfo_left_33" vType="typeWE" speedFactor="1.00" vaporized=""/>
    <tripinfo id="up_30" depart="79.00" departLane="53o_0" departPos="5.10" departSpeed="0.00" departDelay="0.00" arrival="187.00" arrivalLane="54i_0" arrivalPos="10.00" arrivalSpeed="11.53" duration="108.00" routeLength="1015.10" waitSteps="8" timeLoss="32.22" rerouteNo="0" devices="tripinfo_up_30" vType="typeNS" speedFactor="1.00" vaporized=""/>
    <tripinfo id="left_35" depart="102.00" departLane="52o_0" departPos="5.10" departSpeed="0.00" departDelay="0.00" arrival="193.00" arrivalLane="51i_0" arrivalPos="10.00" arrivalSpeed="11.76" duration="91.00" routeLength="1015.10" waitSteps="0" timeLoss="14.94" rerouteNo="0" devices="tripinfo_left_35" vType="typeWE" speedFactor="1.00" vaporized=""/>
    <tripinfo id="up_34" depart="99.00" departLane="53o_0" departPos="5.10" departSpeed="0.00" departDelay="0.00" arrival="204.00" arrivalLane="54i_0" arrivalPos="10.00" arrivalSpeed="11.60" duration="105.00" routeLength="1015.10" waitSteps="3" timeLoss="28.62" rerouteNo="0" devices="tripinfo_up_34" vType="typeNS" speedFactor="1.00" vaporized=""/>
    <tripinfo id="up_36" depart="106.00" departLane="53o_0" departPos="5.10" departSpeed="0.00" departDelay="0.00" arrival="206.00" arrivalLane="54i_0" arrivalPos="10.00" arrivalSpeed="11.49" duration="100.00" routeLength="1015.10" waitSteps="0" timeLoss="23.50" rerouteNo="0" devices="tripinfo_up_36" vType="typeNS" speedFactor="1.00" vaporized=""/>
    <tripinfo id="up_37" depart="112.00" departLane="53o_0" departPos="5.10" departSpeed="0.00" departDelay="0.00" arrival="207.00" arrivalLane="54i_0" arrivalPos="10.00" arrivalSpeed="10.99" duration="95.00" routeLength="1015.10" waitSteps="0" timeLoss="18.98" rerouteNo="0" devices="tripinfo_up_37" vType="typeNS" speedFactor="1.00" vaporized=""/>
    <tripinfo id="up_39" depart="122.00" departLane="53o_0" departPos="5.10" departSpeed="0.00" departDelay="0.00" arrival="213.00" arrivalLane="54i_0" arrivalPos="10.00" arrivalSpeed="11.58" duration="91.00" routeLength="1015.10" waitSteps="0" timeLoss="14.71" rerouteNo="0" devices="tripinfo_up_39" vType="typeNS" speedFactor="1.00" vaporized=""/>
    <tripinfo id="down_38" depart="121.00" departLane="54o_0" departPos="5.10" departSpeed="0.00" departDelay="0.00" arrival="213.00" arrivalLane="53i_0" arrivalPos="10.00" arrivalSpeed="11.44" duration="92.00" routeLength="1015.10" waitSteps="0" timeLoss="15.28" rerouteNo="0" devices="tripinfo_down_38" vType="typeNS" speedFactor="1.00" vaporized=""/>
    <tripinfo id="down_40" depart="127.00" departLane="54o_0" departPos="5.10" departSpeed="0.00" departDelay="4.00" arrival="219.00" arrivalLane="53i_0" arrivalPos="10.00" arrivalSpeed="11.71" duration="92.00" routeLength="1015.10" waitSteps="0" timeLoss="15.21" rerouteNo="0" devices="tripinfo_down_40" vType="typeNS" speedFactor="1.00" vaporized=""/>
    <tripinfo id="down_42" depart="132.00" departLane="54o_0" departPos="5.10" departSpeed="0.00" departDelay="3.00" arrival="224.00" arrivalLane="53i_0" arrivalPos="10.00" arrivalSpeed="11.33" duration="92.00" routeLength="1015.10" waitSteps="0" timeLoss="15.49" rerouteNo="0" devices="tripinfo_down_42" vType="typeNS" speedFactor="1.00" vaporized=""/>
    <tripinfo id="right_44" depart="132.00" departLane="51o_0" departPos="5.10" departSpeed="0.00" departDelay="0.00" arrival="227.00" arrivalLane="52i_0" arrivalPos="10.00" arrivalSpeed="11.73" duration="95.00" routeLength="1015.10" waitSteps="0" timeLoss="18.63" rerouteNo="0" devices="tripinfo_right_44" vType="typeWE" speedFactor="1.00" vaporized=""/>
    <tripinfo id="right_45" depart="139.00" departLane="51o_0" departPos="5.10" departSpeed="0.00" departDelay="6.00" arrival="230.00" arrivalLane="52i_0" arrivalPos="10.00" arrivalSpeed="11.33" duration="91.00" routeLength="1015.10" waitSteps="0" timeLoss="14.98" rerouteNo="0" devices="tripinfo_right_45" vType="typeWE" speedFactor="1.00" vaporized=""/>
    <tripinfo id="left_41" depart="128.00" departLane="52o_0" departPos="5.10" departSpeed="0.00" departDelay="1.00" arrival="233.00" arrivalLane="51i_0" arrivalPos="10.00" arrivalSpeed="11.31" duration="105.00" routeLength="1015.10" waitSteps="3" timeLoss="28.98" rerouteNo="0" devices="tripinfo_left_41" vType="typeWE" speedFactor="1.00" vaporized=""/>
    <tripinfo id="left_43" depart="133.00" departLane="52o_0" departPos="5.10" departSpeed="0.00" departDelay="2.00" arrival="236.00" arrivalLane="51i_0" arrivalPos="10.00" arrivalSpeed="11.66" duration="103.00" routeLength="1015.10" waitSteps="0" timeLoss="26.70" rerouteNo="0" devices="tripinfo_left_43" vType="typeWE" speedFactor="1.00" vaporized=""/>
    <tripinfo id="left_47" depart="141.00" departLane="52o_0" departPos="5.10" departSpeed="0.00" departDelay="0.00" arrival="238.00" arrivalLane="51i_0" arrivalPos="10.00" arrivalSpeed="11.30" duration="97.00" routeLength="1015.10" waitSteps="0" timeLoss="20.51" rerouteNo="0" devices="tripinfo_left_47" vType="typeWE" speedFactor="1.00" vaporized=""/>
    <tripinfo id="down_48" depart="144.00" departLane="54o_0" departPos="5.10" departSpeed="0.00" departDelay="0.00" arrival="239.00" arrivalLane="53i_0" arrivalPos="10.00" arrivalSpeed="11.61" duration="95.00" routeLength="1015.10" waitSteps="0" timeLoss="18.54" rerouteNo="0" devices="tripinfo_down_48" vType="typeNS" speedFactor="1.00" vaporized=""/>
    <tripinfo id="down_49" depart="150.00" departLane="54o_0" departPos="5.10" departSpeed="0.00" departDelay="5.00" arrival="241.00" arrivalLane="53i_0" arrivalPos="10.00" arrivalSpeed="11.62" duration="91.00" routeLength="1015.10" waitSteps="0" timeLoss="14.88" rerouteNo="0" devices="tripinfo_down_49" vType="typeNS" speedFactor="1.00" vaporized=""/>
    <tripinfo id="up_46" depart="140.00" departLane="53o_0" departPos="5.10" departSpeed="0.00" departDelay="0.00" arrival="245.00" arrivalLane="54i_0" arrivalPos="10.00" arrivalSpeed="11.55" duration="105.00" routeLength="1015.10" waitSteps="3" timeLoss="28.73" rerouteNo="0" devices="tripinfo_up_46" vType="typeNS" speedFactor="1.00" vaporized=""/>
    <tripinfo id="up_50" depart="150.00" departLane="53o_0" departPos="5.10" departSpeed="0.00" departDelay="1.00" arrival="247.00" arrivalLane="54i_0" arrivalPos="10.00" arrivalSpeed="11.47" duration="97.00" routeLength="1015.10" waitSteps="0" timeLoss="21.15" rerouteNo="0" devices="tripinfo_up_50" vType="typeNS" speedFactor="1.00" vaporized=""/>
    <tripinfo id="up_51" depart="155.00" departLane="53o_0" departPos="5.10" departSpeed="0.00" departDelay="4.00" arrival="249.00" arrivalLane="54i_0" arrivalPos="10.00" arrivalSpeed="11.69" duration="94.00" routeLength="1015.10" waitSteps="0" timeLoss="18.10" rerouteNo="0" devices="tripinfo_up_51" vType="typeNS" speedFactor="1.00" vaporized=""/>
    <tripinfo id="up_53" depart="160.00" departLane="53o_0" departPos="5.10" departSpeed="0.00" departDelay="1.00" arrival="251.00" arrivalLane="54i_0" arrivalPos="10.00" arrivalSpeed="11.46" duration="91.00" routeLength="1015.10" waitSteps="0" timeLoss="14.92" rerouteNo="0" devices="tripinfo_up_53" vType="typeNS" speedFactor="1.00" vaporized=""/>
    <tripinfo id="down_52" depart="162.00" departLane="54o_0" departPos="5.10" departSpeed="0.00" departDelay="6.00" arrival="254.00" arrivalLane="53i_0" arrivalPos="10.00" arrivalSpeed="11.31" duration="92.00" routeLength="1015.10" waitSteps="0" timeLoss="15.31" rerouteNo="0" devices="tripinfo_down_52" vType="typeNS" speedFactor="1.00" vaporized=""/>
    <tripinfo id="down_56" depart="169.00" departLane="54o_0" departPos="5.10" departSpeed="0.00" departDelay="0.00" arrival="260.00" arrivalLane="53i_0" arrivalPos="10.00" arrivalSpeed="11.28" duration="91.00" routeLength="1015.10" waitSteps="0" timeLoss="14.86" rerouteNo="0" devices="tripinfo_down_56" vType="typeNS" speedFactor="1.00" vaporized=""/>
    <tripinfo id="right_54" depart="162.00" departLane="51o_0" departPos="5.10" departSpeed="0.00" departDelay="0.00" arrival="268.00" arrivalLane="52i_0" arrivalPos="10.00" arrivalSpeed="11.06" duration="106.00" routeLength="1015.10" waitSteps="5" timeLoss="30.01" rerouteNo="0" devices="tripinfo_right_54" vType="typeWE" speedFactor="1.00" vaporized=""/>
    <tripinfo id="left_57" depart="176.00" departLane="52o_0" departPos="5.10" departSpeed="0.00" departDelay="2.00" arrival="268.00" arrivalLane="51i_0" arrivalPos="10.00" arrivalSpeed="11.44" duration="92.00" routeLength="1015.10" waitSteps="0" timeLoss="15.39" rerouteNo="0" devices="tripinfo_left_57" vType="typeWE" speedFactor="1.00" vaporized=""/>
    <tripinfo id="right_55" depart="168.00" departLane="51o_0" departPos="5.10" departSpeed="0.00" departDelay="0.00" arrival="272.00" arrivalLane="52i_0" arrivalPos="10.00" arrivalSpeed="11.32" duration="104.00" routeLength="1015.10" waitSteps="0" timeLoss="27.48" rerouteNo="0" devices="tripinfo_right_55" vType="typeWE" speedFactor="1.00" vaporized=""/>
    <tripinfo id="up_58" depart="192.00" departLane="53o_0" departPos="5.10" departSpeed="0.00" departDelay="0.00" arrival="283.00" arrivalLane="54i_0" arrivalPos="10.00" arrivalSpeed="11.36" duration="91.00" routeLength="1015.10" waitSteps="0" timeLoss="14.71" rerouteNo="0" devices="tripinfo_up_58" vType="typeNS" speedFactor="1.00" vaporized=""/>
    <tripinfo id="down_60" depart="198.00" departLane="54o_0" departPos="5.10" departSpeed="0.00" departDelay="0.00" arrival="289.00" arrivalLane="53i_0" arrivalPos="10.00" arrivalSpeed="11.62" duration="91.00" routeLength="1015.10" waitSteps="0" timeLoss="14.72" rerouteNo="0" devices="tripinfo_down_60" vType="typeNS" speedFactor="1.00" vaporized=""/>
    <tripinfo id="up_61" depart="202.00" departLane="53o_0" departPos="5.10" departSpeed="0.00" departDelay="0.00" arrival="293.00" arrivalLane="54i_0" arrivalPos="10.00" arrivalSpeed="11.45" duration="91.00" routeLength="1015.10" waitSteps="0" timeLoss="15.07" rerouteNo="0" devices="tripinfo_up_61" vType="typeNS" speedFactor="1.00" vaporized=""/>
    <tripinfo id="up_64" depart="207.00" departLane="53o_0" departPos="5.10" departSpeed="0.00" departDelay="1.00" arrival="299.00" arrivalLane="54i_0" arrivalPos="10.00" arrivalSpeed="11.57" duration="92.00" routeLength="1015.10" waitSteps="0" timeLoss="15.22" rerouteNo="0" devices="tripinfo_up_64" vType="typeNS" speedFactor="1.00" vaporized=""/>
    <tripinfo id="down_63" depart="207.00" departLane="54o_0" departPos="5.10" departSpeed="0.00" departDelay="2.00" arrival="299.00" arrivalLane="53i_0" arrivalPos="10.00" arrivalSpeed="11.55" duration="92.00" routeLength="1015.10" waitSteps="0" timeLoss="15.85" rerouteNo="0" devices="tripinfo_down_63" vType="typeNS" speedFactor="1.00" vaporized=""/>
    <tripinfo id="down_65" depart="213.00" departLane="54o_0" departPos="5.10" departSpeed="0.00" departDelay="4.00" arrival="304.00" arrivalLane="53i_0" arrivalPos="10.00" arrivalSpeed="11.03" duration="91.00" routeLength="1015.10" waitSteps="0" timeLoss="14.91" rerouteNo="0" devices="tripinfo_down_65" vType="typeNS" speedFactor="1.00" vaporized=""/>
    <tripinfo id="up_67" depart="219.00" departLane="53o_0" departPos="5.10" departSpeed="0.00" departDelay="1.00" arrival="310.00" arrivalLane="54i_0" arrivalPos="10.00" arrivalSpeed="11.37" duration="91.00" routeLength="1015.10" waitSteps="0" timeLoss="14.76" rerouteNo="0" devices="tripinfo_up_67" vType="typeNS" speedFactor="1.00" vaporized=""/>
    <tripinfo id="right_59" depart="194.00" departLane="51o_0" departPos="5.10" departSpeed="0.00" departDelay="0.00" arrival="320.00" arrivalLane="52i_0" arrivalPos="10.00" arrivalSpeed="11.69" duration="126.00" routeLength="1015.10" waitSteps="24" timeLoss="49.58" rerouteNo="0" devices="tripinfo_right_59" vType="typeWE" speedFactor="1.00" vaporized=""/>
    <tripinfo id="left_68" depart="230.00" departLane="52o_0" departPos="5.10" departSpeed="0.00" departDelay="1.00" arrival="321.00" arrivalLane="51i_0" arrivalPos="10.00" arrivalSpeed="11.48" duration="91.00" routeLength="1015.10" waitSteps="0" timeLoss="14.39" rerouteNo="0" devices="tripinfo_left_68" vType="typeWE" speedFactor="1.00" vaporized=""/>
    <tripinfo id="right_62" depart="203.00" departLane="51o_0" departPos="5.10" departSpeed="0.00" departDelay="0.00" arrival="322.00" arrivalLane="52i_0" arrivalPos="10.00" arrivalSpeed="11.60" duration="119.00" routeLength="1015.10" waitSteps="17" timeLoss="42.65" rerouteNo="0" devices="tripinfo_right_62" vType="typeWE" speedFactor="1.00" vaporized=""/>
    <tripinfo id="right_66" depart="216.00" departLane="51o_0" departPos="5.10" departSpeed="0.00" departDelay="0.00" arrival="324.00" arrivalLane="52i_0" arrivalPos="10.00" arrivalSpeed="11.28" duration="108.00" routeLength="1015.10" waitSteps="4" timeLoss="31.50" rerouteNo="0" devices="tripinfo_right_66" vType="typeWE" speedFactor="1.00" vaporized=""/>
    <tripinfo id="up_69" depart="229.00" departLane="53o_0" departPos="5.10" departSpeed="0.00" departDelay="0.00" arrival="326.00" arrivalLane="54i_0" arrivalPos="10.00" arrivalSpeed="11.48" duration="97.00" routeLength="1015.10" waitSteps="0" timeLoss="20.79" rerouteNo="0" devices="tripinfo_up_69" vType="typeNS" speedFactor="1.00" vaporized=""/>
    <tripinfo id="up_71" depart="234.00" departLane="53o_0" departPos="5.10" departSpeed="0.00" departDelay="3.00" arrival="328.00" arrivalLane="54i_0" arrivalPos="10.00" arrivalSpeed="11.32" duration="94.00" routeLength="1015.10" waitSteps="0" timeLoss="17.64" rerouteNo="0" devices="tripinfo_up_71" vType="typeNS" speedFactor="1.00" vaporized=""/>
    <tripinfo id="left_70" depart="235.00" departLane="52o_0" departPos="5.10" departSpeed="0.00" departDelay="4.00" arrival="329.00" arrivalLane="51i_0" arrivalPos="10.00" arrivalSpeed="11.28" duration="94.00" routeLength="1015.10" waitSteps="0" timeLoss="17.29" rerouteNo="0" devices="tripinfo_left_70" vType="typeWE" speedFactor="1.00" vaporized=""/>
    <tripinfo id="right_72" depart="242.00" departLane="51o_0" departPos="5.10" departSpeed="0.00" departDelay="0.00" arrival="333.00" arrivalLane="52i_0" arrivalPos="10.00" arrivalSpeed="11.39" duration="91.00" routeLength="1015.10" waitSteps="0" timeLoss="14.78" rerouteNo="0" devices="tripinfo_right_72" vType="typeWE" speedFactor="1.00" vaporized=""/>
    <tripinfo id="left_73" depart="244.00" departLane="52o_0" departPos="5.10" departSpeed="0.00" departDelay="0.00" arrival="336.00" arrivalLane="51i_0" arrivalPos="10.00" arrivalSpeed="11.63" duration="92.00" routeLength="1015.10" waitSteps="0" timeLoss="15.28" rerouteNo="0" devices="tripinfo_left_73" vType="typeWE" speedFactor="1.00" vaporized=""/>
    <tripinfo id="right_77" depart="251.00" departLane="51o_0" departPos="5.10" departSpeed="0.00" departDelay="0.00" arrival="342.00" arrivalLane="52i_0" arrivalPos="10.00" arrivalSpeed="11.32" duration="91.00" routeLength="1015.10" waitSteps="0" timeLoss="14.60" rerouteNo="0" devices="tripinfo_right_77" vType="typeWE" speedFactor="1.00" vaporized=""/>
    <tripinfo id="left_74" depart="250.00" departLane="52o_0" departPos="5.10" departSpeed="0.00" departDelay="2.00" arrival="342.00" arrivalLane="51i_0" arrivalPos="10.00" arrivalSpeed="11.46" duration="92.00" routeLength="1015.10" waitSteps="0" timeLoss="15.89" rerouteNo="0" devices="tripinfo_left_74" vType="typeWE" speedFactor="1.00" vaporized=""/>
    <tripinfo id="left_76" depart="255.00" departLane="52o_0" departPos="5.10" departSpeed="0.00" departDelay="6.00" arrival="346.00" arrivalLane="51i_0" arrivalPos="10.00" arrivalSpeed="11.80" duration="91.00" routeLength="1015.10" waitSteps="0" timeLoss="14.33" rerouteNo="0" devices="tripinfo_left_76" vType="typeWE" speedFactor="1.00" vaporized=""/>
    <tripinfo id="right_79" depart="256.00" departLane="51o_0" departPos="5.10" departSpeed="0.00" departDelay="4.00" arrival="347.00" arrivalLane="52i_0" arrivalPos="10.00" arrivalSpeed="11.50" duration="91.00" routeLength="1015.10" waitSteps="0" timeLoss="14.64" rerouteNo="0" devices="tripinfo_right_79" vType="typeWE" speedFactor="1.00" vaporized=""/>
    <tripinfo id="left_82" depart="260.00" departLane="52o_0" departPos="5.10" departSpeed="0.00" departDelay="1.00" arrival="352.00" arrivalLane="51i_0" arrivalPos="10.00" arrivalSpeed="11.71" duration="92.00" routeLength="1015.10" waitSteps="0" timeLoss="15.22" rerouteNo="0" devices="tripinfo_left_82" vType="typeWE" speedFactor="1.00" vaporized=""/>
    <tripinfo id="right_81" depart="261.00" departLane="51o_0" departPos="5.10" departSpeed="0.00" departDelay="2.00" arrival="353.00" arrivalLane="52i_0" arrivalPos="10.00" arrivalSpeed="11.67" duration="92.00" routeLength="1015.10" waitSteps="0" timeLoss="15.42" rerouteNo="0" devices="tripinfo_right_81" vType="typeWE" speedFactor="1.00" vaporized=""/>
    <tripinfo id="left_84" depart="265.00" departLane="52o_0" departPos="5.10" departSpeed="0.00" departDelay="3.00" arrival="357.00" arrivalLane="51i_0" arrivalPos="10.00" arrivalSpeed="11.35" duration="92.00" routeLength="1015.10" waitSteps="0" timeLoss="15.47" rerouteNo="0" devices="tripinfo_left_84" vType="typeWE" speedFactor="1.00" vaporized=""/>
    <tripinfo id="right_86" depart="268.00" departLane="51o_0" departPos="5.10" departSpeed="0.00" departDelay="2.00" arrival="359.00" arrivalLane="52i_0" arrivalPos="10.00" arrivalSpeed="11.31" duration="91.00" routeLength="1015.10" waitSteps="0" timeLoss="14.73" rerouteNo="0" devices="tripinfo_right_86" vType="typeWE" speedFactor="1.00" vaporized=""/>