<?xml version="1.0" encoding="UTF-8"?>

<!-- generated on Mon Apr 30 16:25:20 2018 by SUMO Version 0.32.0
<?xml version="1.0" encoding="UTF-8"?>

<configuration xmlns:xsi="http://www.w3.org/2001/XMLSchema-instance" xsi:noNamespaceSchemaLocation="http://sumo.dlr.de/xsd/sumoConfiguration.xsd">

    <input>
        <net-file value="data/cross.net.xml"/>
        <route-files value="data/cross.rou.xml"/>
        <additional-files value="data/cross.det.xml"/>
    </input>

    <output>
        <summary-output value="data/cross.out"/>
        <tripinfo-output value="output/tripinfo280.xml"/>
    </output>

    <time>
        <begin value="0"/>
    </time>

    <report>
        <verbose value="true"/>
        <duration-log.statistics value="true"/>
        <no-step-log value="true"/>
    </report>

    <traci_server>
        <remote-port value="38564"/>
    </traci_server>

</configuration>
-->

<tripinfos xmlns:xsi="http://www.w3.org/2001/XMLSchema-instance" xsi:noNamespaceSchemaLocation="http://sumo.dlr.de/xsd/tripinfo_file.xsd">
    <tripinfo id="down_1" depart="1.00" departLane="54o_0" departPos="5.10" departSpeed="0.00" departDelay="0.00" arrival="92.00" arrivalLane="53i_0" arrivalPos="10.00" arrivalSpeed="11.32" duration="91.00" routeLength="1015.10" waitSteps="0" timeLoss="14.86" rerouteNo="0" devices="tripinfo_down_1" vType="typeNS" speedFactor="1.00" vaporized=""/>
    <tripinfo id="up_2" depart="15.00" departLane="53o_0" departPos="5.10" departSpeed="0.00" departDelay="0.00" arrival="105.00" arrivalLane="54i_0" arrivalPos="10.00" arrivalSpeed="10.92" duration="90.00" routeLength="1015.10" waitSteps="0" timeLoss="13.84" rerouteNo="0" devices="tripinfo_up_2" vType="typeNS" speedFactor="1.00" vaporized=""/>
    <tripinfo id="right_5" depart="24.00" departLane="51o_0" departPos="5.10" departSpeed="0.00" departDelay="0.00" arrival="115.00" arrivalLane="52i_0" arrivalPos="10.00" arrivalSpeed="11.51" duration="91.00" routeLength="1015.10" waitSteps="0" timeLoss="14.70" rerouteNo="0" devices="tripinfo_right_5" vType="typeWE" speedFactor="1.00" vaporized=""/>
    <tripinfo id="left_0" depart="1.00" departLane="52o_0" departPos="5.10" departSpeed="0.00" departDelay="0.00" arrival="117.00" arrivalLane="51i_0" arrivalPos="10.00" arrivalSpeed="11.27" duration="116.00" routeLength="1015.10" waitSteps="14" timeLoss="39.68" rerouteNo="0" devices="tripinfo_left_0" vType="typeWE" speedFactor="1.00" vaporized=""/>
    <tripinfo id="left_4" depart="23.00" departLane="52o_0" departPos="5.10" departSpeed="0.00" departDelay="0.00" arrival="119.00" arrivalLane="51i_0" arrivalPos="10.00" arrivalSpeed="11.48" duration="96.00" routeLength="1015.10" waitSteps="0" timeLoss="19.48" rerouteNo="0" devices="tripinfo_left_4" vType="typeWE" speedFactor="1.00" vaporized=""/>
    <tripinfo id="right_6" depart="31.00" departLane="51o_0" departPos="5.10" departSpeed="0.00" departDelay="0.00" arrival="123.00" arrivalLane="52i_0" arrivalPos="10.00" arrivalSpeed="11.46" duration="92.00" routeLength="1015.10" waitSteps="0" timeLoss="15.47" rerouteNo="0" devices="tripinfo_right_6" vType="typeWE" speedFactor="1.00" vaporized=""/>
    <tripinfo id="left_9" depart="34.00" departLane="52o_0" departPos="5.10" departSpeed="0.00" departDelay="0.00" arrival="126.00" arrivalLane="51i_0" arrivalPos="10.00" arrivalSpeed="11.21" duration="92.00" routeLength="1015.10" waitSteps="0" timeLoss="15.51" rerouteNo="0" devices="tripinfo_left_9" vType="typeWE" speedFactor="1.00" vaporized=""/>
    <tripinfo id="right_8" depart="36.00" departLane="51o_0" departPos="5.10" departSpeed="0.00" departDelay="2.00" arrival="128.00" arrivalLane="52i_0" arrivalPos="10.00" arrivalSpeed="11.52" duration="92.00" routeLength="1015.10" waitSteps="0" timeLoss="15.18" rerouteNo="0" devices="tripinfo_right_8" vType="typeWE" speedFactor="1.00" vaporized=""/>
    <tripinfo id="left_11" depart="39.00" departLane="52o_0" departPos="5.10" departSpeed="0.00" departDelay="1.00" arrival="131.00" arrivalLane="51i_0" arrivalPos="10.00" arrivalSpeed="11.52" duration="92.00" routeLength="1015.10" waitSteps="0" timeLoss="15.27" rerouteNo="0" devices="tripinfo_left_11" vType="typeWE" speedFactor="1.00" vaporized=""/>
    <tripinfo id="right_16" depart="42.00" departLane="51o_0" departPos="5.10" departSpeed="0.00" departDelay="0.00" arrival="133.00" arrivalLane="52i_0" arrivalPos="10.00" arrivalSpeed="11.58" duration="91.00" routeLength="1015.10" waitSteps="0" timeLoss="14.61" rerouteNo="0" devices="tripinfo_right_16" vType="typeWE" speedFactor="1.00" vaporized=""/>
    <tripinfo id="left_13" depart="44.00" departLane="52o_0" departPos="5.10" departSpeed="0.00" departDelay="5.00" arrival="136.00" arrivalLane="51i_0" arrivalPos="10.00" arrivalSpeed="11.37" duration="92.00" routeLength="1015.10" waitSteps="0" timeLoss="15.62" rerouteNo="0" devices="tripinfo_left_13" vType="typeWE" speedFactor="1.00" vaporized=""/>
    <tripinfo id="left_17" depart="49.00" departLane="52o_0" departPos="5.10" departSpeed="0.00" departDelay="6.00" arrival="141.00" arrivalLane="51i_0" arrivalPos="10.00" arrivalSpeed="11.71" duration="92.00" routeLength="1015.10" waitSteps="0" timeLoss="15.90" rerouteNo="0" devices="tripinfo_left_17" vType="typeWE" speedFactor="1.00" vaporized=""/>
    <tripinfo id="left_23" depart="68.00" departLane="52o_0" departPos="5.10" departSpeed="0.00" departDelay="0.00" arrival="159.00" arrivalLane="51i_0" arrivalPos="10.00" arrivalSpeed="11.61" duration="91.00" routeLength="1015.10" waitSteps="0" timeLoss="14.77" rerouteNo="0" devices="tripinfo_left_23" vType="typeWE" speedFactor="1.00" vaporized=""/>
    <tripinfo id="right_22" depart="68.00" departLane="51o_0" departPos="5.10" departSpeed="0.00" departDelay="0.00" arrival="159.00" arrivalLane="52i_0" arrivalPos="10.00" arrivalSpeed="11.32" duration="91.00" routeLength="1015.10" waitSteps="0" timeLoss="14.28" rerouteNo="0" devices="tripinfo_right_22" vType="typeWE" speedFactor="1.00" vaporized=""/>
    <tripinfo id="left_26" depart="73.00" departLane="52o_0" departPos="5.10" departSpeed="0.00" departDelay="0.00" arrival="165.00" arrivalLane="51i_0" arrivalPos="10.00" arrivalSpeed="11.78" duration="92.00" routeLength="1015.10" waitSteps="0" timeLoss="15.80" rerouteNo="0" devices="tripinfo_left_26" vType="typeWE" speedFactor="1.00" vaporized=""/>
    <tripinfo id="down_3" depart="18.00" departLane="54o_0" departPos="5.10" departSpeed="0.00" departDelay="0.00" arrival="176.00" arrivalLane="53i_0" arrivalPos="10.00" arrivalSpeed="11.69" duration="158.00" routeLength="1015.10" waitSteps="59" timeLoss="81.80" rerouteNo="0" devices="tripinfo_down_3" vType="typeNS" speedFactor="1.00" vaporized=""/>
    <tripinfo id="up_7" depart="31.00" departLane="53o_0" departPos="5.10" departSpeed="0.00" departDelay="0.00" arrival="176.00" arrivalLane="54i_0" arrivalPos="10.00" arrivalSpeed="11.77" duration="145.00" routeLength="1015.10" waitSteps="43" timeLoss="69.10" rerouteNo="0" devices="tripinfo_up_7" vType="typeNS" speedFactor="1.00" vaporized=""/>
    <tripinfo id="up_10" depart="36.00" departLane="53o_0" departPos="5.10" departSpeed="0.00" departDelay="2.00" arrival="178.00" arrivalLane="54i_0" arrivalPos="10.00" arrivalSpeed="11.80" duration="142.00" routeLength="1015.10" waitSteps="40" timeLoss="66.04" rerouteNo="0" devices="tripinfo_up_10" vType="typeNS" speedFactor="1.00" vaporized=""/>
    <tripinfo id="down_18" depart="56.00" departLane="54o_0" departPos="5.10" departSpeed="0.00" departDelay="0.00" arrival="179.00" arrivalLane="53i_0" arrivalPos="10.00" arrivalSpeed="11.45" duration="123.00" routeLength="1015.10" waitSteps="20" timeLoss="46.51" rerouteNo="0" devices="tripinfo_down_18" vType="typeNS" speedFactor="1.00" vaporized=""/>
    <tripinfo id="down_19" depart="61.00" departLane="54o_0" departPos="5.10" departSpeed="0.00" departDelay="3.00" arrival="180.00" arrivalLane="53i_0" arrivalPos="10.00" arrivalSpeed="11.40" duration="119.00" routeLength="1015.10" waitSteps="16" timeLoss="43.19" rerouteNo="0" devices="tripinfo_down_19" vType="typeNS" speedFactor="1.00" vaporized=""/>
    <tripinfo id="up_12" depart="41.00" departLane="53o_0" departPos="5.10" departSpeed="0.00" departDelay="3.00" arrival="181.00" arrivalLane="54i_0" arrivalPos="10.00" arrivalSpeed="11.59" duration="140.00" routeLength="1015.10" waitSteps="36" timeLoss="63.96" rerouteNo="0" devices="tripinfo_up_12" vType="typeNS" speedFactor="1.00" vaporized=""/>
    <tripinfo id="down_24" depart="68.00" departLane="54o_0" departPos="5.10" departSpeed="0.00" departDelay="0.00" arrival="183.00" arrivalLane="53i_0" arrivalPos="10.00" arrivalSpeed="11.53" duration="115.00" routeLength="1015.10" waitSteps="11" timeLoss="38.41" rerouteNo="0" devices="tripinfo_down_24" vType="typeNS" speedFactor="1.00" vaporized=""/>
    <tripinfo id="up_14" depart="46.00" departLane="53o_0" departPos="5.10" departSpeed="0.00" departDelay="7.00" arrival="183.00" arrivalLane="54i_0" arrivalPos="10.00" arrivalSpeed="11.73" duration="137.00" routeLength="1015.10" waitSteps="31" timeLoss="60.74" rerouteNo="0" devices="tripinfo_up_14" vType="typeNS" speedFactor="1.00" vaporized=""/>
    <tripinfo id="down_25" depart="73.00" departLane="54o_0" departPos="5.10" departSpeed="0.00" departDelay="4.00" arrival="185.00" arrivalLane="53i_0" arrivalPos="10.00" arrivalSpeed="11.31" duration="112.00" routeLength="1015.10" waitSteps="9" timeLoss="35.52" rerouteNo="0" devices="tripinfo_down_25" vType="typeNS" speedFactor="1.00" vaporized=""/>
    <tripinfo id="up_15" depart="52.00" departLane="53o_0" departPos="5.10" departSpeed="0.00" departDelay="12.00" arrival="185.00" arrivalLane="54i_0" arrivalPos="10.00" arrivalSpeed="11.75" duration="133.00" routeLength="1015.10" waitSteps="28" timeLoss="56.78" rerouteNo="0" devices="tripinfo_up_15" vType="typeNS" speedFactor="1.00" vaporized=""/>
    <tripinfo id="down_27" depart="81.00" departLane="54o_0" departPos="5.10" departSpeed="0.00" departDelay="0.00" arrival="187.00" arrivalLane="53i_0" arrivalPos="10.00" arrivalSpeed="11.70" duration="106.00" routeLength="1015.10" waitSteps="1" timeLoss="29.64" rerouteNo="0" devices="tripinfo_down_27" vType="typeNS" speedFactor="1.00" vaporized=""/>
    <tripinfo id="up_20" depart="61.00" departLane="53o_0" departPos="5.10" departSpeed="0.00" departDelay="0.00" arrival="187.00" arrivalLane="54i_0" arrivalPos="10.00" arrivalSpeed="11.62" duration="126.00" routeLength="1015.10" waitSteps="21" timeLoss="49.73" rerouteNo="0" devices="tripinfo_up_20" vType="typeNS" speedFactor="1.00" vaporized=""/>
    <tripinfo id="down_29" depart="91.00" departLane="54o_0" departPos="5.10" departSpeed="0.00" departDelay="0.00" arrival="189.00" arrivalLane="53i_0" arrivalPos="10.00" arrivalSpeed="11.33" duration="98.00" routeLength="1015.10" waitSteps="0" timeLoss="21.71" rerouteNo="0" devices="tripinfo_down_29" vType="typeNS" speedFactor="1.00" vaporized=""/>
    <tripinfo id="up_21" depart="66.00" departLane="53o_0" departPos="5.10" departSpeed="0.00" departDelay="1.00" arrival="189.00" arrivalLane="54i_0" arrivalPos="10.00" arrivalSpeed="11.53" duration="123.00" routeLength="1015.10" waitSteps="18" timeLoss="46.58" rerouteNo="0" devices="tripinfo_up_21" vType="typeNS" speedFactor="1.00" vaporized=""/>
    <tripinfo id="down_33" depart="97.00" departLane="54o_0" departPos="5.10" departSpeed="0.00" departDelay="0.00" arrival="191.00" arrivalLane="53i_0" arrivalPos="10.00" arrivalSpeed="11.33" duration="94.00" routeLength="1015.10" waitSteps="0" timeLoss="17.49" rerouteNo="0" devices="tripinfo_down_33" vType="typeNS" speedFactor="1.00" vaporized=""/>
    <tripinfo id="up_28" depart="82.00" departLane="53o_0" departPos="5.10" departSpeed="0.00" departDelay="0.00" arrival="191.00" arrivalLane="54i_0" arrivalPos="10.00" arrivalSpeed="11.37" duration="109.00" routeLength="1015.10" waitSteps="3" timeLoss="32.76" rerouteNo="0" devices="tripinfo_up_28" vType="typeNS" speedFactor="1.00" vaporized=""/>
    <tripinfo id="down_34" depart="102.00" departLane="54o_0" departPos="5.10" departSpeed="0.00" departDelay="4.00" arrival="192.00" arrivalLane="53i_0" arrivalPos="10.00" arrivalSpeed="11.77" duration="90.00" routeLength="1015.10" waitSteps="0" timeLoss="14.08" rerouteNo="0" devices="tripinfo_down_34" vType="typeNS" speedFactor="1.00" vaporized=""/>
    <tripinfo id="up_30" depart="92.00" departLane="53o_0" departPos="5.10" departSpeed="0.00" departDelay="1.00" arrival="193.00" arrivalLane="54i_0" arrivalPos="10.00" arrivalSpeed="11.40" duration="101.00" routeLength="1015.10" waitSteps="0" timeLoss="25.16" rerouteNo="0" devices="tripinfo_up_30" vType="typeNS" speedFactor="1.00" vaporized=""/>
    <tripinfo id="up_37" depart="113.00" departLane="53o_0" departPos="5.10" departSpeed="0.00" departDelay="0.00" arrival="203.00" arrivalLane="54i_0" arrivalPos="10.00" arrivalSpeed="11.83" duration="90.00" routeLength="1015.10" waitSteps="0" timeLoss="13.94" rerouteNo="0" devices="tripinfo_up_37" vType="typeNS" speedFactor="1.00" vaporized=""/>
    <tripinfo id="down_38" depart="114.00" departLane="54o_0" departPos="5.10" departSpeed="0.00" departDelay="0.00" arrival="204.00" arrivalLane="53i_0" arrivalPos="10.00" arrivalSpeed="11.54" duration="90.00" routeLength="1015.10" waitSteps="0" timeLoss="13.79" rerouteNo="0" devices="tripinfo_down_38" vType="typeNS" speedFactor="1.00" vaporized=""/>
    <tripinfo id="up_39" depart="121.00" departLane="53o_0" departPos="5.10" departSpeed="0.00" departDelay="0.00" arrival="213.00" arrivalLane="54i_0" arrivalPos="10.00" arrivalSpeed="11.38" duration="92.00" routeLength="1015.10" waitSteps="0" timeLoss="15.99" rerouteNo="0" devices="tripinfo_up_39" vType="typeNS" speedFactor="1.00" vaporized=""/>
    <tripinfo id="up_40" depart="127.00" departLane="53o_0" departPos="5.10" departSpeed="0.00" departDelay="0.00" arrival="219.00" arrivalLane="54i_0" arrivalPos="10.00" arrivalSpeed="11.50" duration="92.00" routeLength="1015.10" waitSteps="0" timeLoss="15.99" rerouteNo="0" devices="tripinfo_up_40" vType="typeNS" speedFactor="1.00" vaporized=""/>
    <tripinfo id="right_41" depart="131.00" departLane="51o_0" departPos="5.10" departSpeed="0.00" departDelay="0.00" arrival="236.00" arrivalLane="52i_0" arrivalPos="10.00" arrivalSpeed="11.43" duration="105.00" routeLength="1015.10" waitSteps="3" timeLoss="29.00" rerouteNo="0" devices="tripinfo_right_41" vType="typeWE" speedFactor="1.00" vaporized=""/>
    <tripinfo id="left_31" depart="96.00" departLane="52o_0" departPos="5.10" departSpeed="0.00" departDelay="0.00" arrival="237.00" arrivalLane="51i_0" arrivalPos="10.00" arrivalSpeed="11.28" duration="141.00" routeLength="1015.10" waitSteps="38" timeLoss="64.38" rerouteNo="0" devices="tripinfo_left_31" vType="typeWE" speedFactor="1.00" vaporized=""/>
    <tripinfo id="left_32" depart="101.00" departLane="52o_0" departPos="5.10" departSpeed="0.00" departDelay="4.00" arrival="238.00" arrivalLane="51i_0" arrivalPos="10.00" arrivalSpeed="11.77" duration="137.00" routeLength="1015.10" waitSteps="35" timeLoss="61.23" rerouteNo="0" devices="tripinfo_left_32" vType="typeWE" speedFactor="1.00" vaporized=""/>
    <tripinfo id="right_42" depart="136.00" departLane="51o_0" departPos="5.10" departSpeed="0.00" departDelay="4.00" arrival="238.00" arrivalLane="52i_0" arrivalPos="10.00" arrivalSpeed="11.49" duration="102.00" routeLength="1015.10" waitSteps="1" timeLoss="25.83" rerouteNo="0" devices="tripinfo_right_42" vType="typeWE" speedFactor="1.00" vaporized=""/>
    <tripinfo id="right_46" depart="142.00" departLane="51o_0" departPos="5.10" departSpeed="0.00" departDelay="0.00" arrival="240.00" arrivalLane="52i_0" arrivalPos="10.00" arrivalSpeed="11.55" duration="98.00" routeLength="1015.10" waitSteps="0" timeLoss="22.13" rerouteNo="0" devices="tripinfo_right_46" vType="typeWE" speedFactor="1.00" vaporized=""/>
    <tripinfo id="left_35" depart="106.00" departLane="52o_0" departPos="5.10" departSpeed="0.00" departDelay="6.00" arrival="241.00" arrivalLane="51i_0" arrivalPos="10.00" arrivalSpeed="11.35" duration="135.00" routeLength="1015.10" waitSteps="30" timeLoss="58.40" rerouteNo="0" devices="tripinfo_left_35" vType="typeWE" speedFactor="1.00" vaporized=""/>
    <tripinfo id="left_36" depart="112.00" departLane="52o_0" departPos="5.10" departSpeed="0.00" departDelay="4.00" arrival="242.00" arrivalLane="51i_0" arrivalPos="10.00" arrivalSpeed="11.51" duration="130.00" routeLength="1015.10" waitSteps="27" timeLoss="54.09" rerouteNo="0" devices="tripinfo_left_36" vType="typeWE" speedFactor="1.00" vaporized=""/>
    <tripinfo id="left_43" depart="135.00" departLane="52o_0" departPos="5.10" departSpeed="0.00" departDelay="0.00" arrival="244.00" arrivalLane="51i_0" arrivalPos="10.00" arrivalSpeed="11.46" duration="109.00" routeLength="1015.10" waitSteps="6" timeLoss="33.02" rerouteNo="0" devices="tripinfo_left_43" vType="typeWE" speedFactor="1.00" vaporized=""/>
    <tripinfo id="left_44" depart="140.00" departLane="52o_0" departPos="5.10" departSpeed="0.00" departDelay="1.00" arrival="246.00" arrivalLane="51i_0" arrivalPos="10.00" arrivalSpeed="11.79" duration="106.00" routeLength="1015.10" waitSteps="0" timeLoss="29.89" rerouteNo="0" devices="tripinfo_left_44" vType="typeWE" speedFactor="1.00" vaporized=""/>
    <tripinfo id="left_48" depart="149.00" departLane="52o_0" departPos="5.10" departSpeed="0.00" departDelay="0.00" arrival="248.00" arrivalLane="51i_0" arrivalPos="10.00" arrivalSpeed="11.27" duration="99.00" routeLength="1015.10" waitSteps="0" timeLoss="22.73" rerouteNo="0" devices="tripinfo_left_48" vType="typeWE" speedFactor="1.00" vaporized=""/>
    <tripinfo id="right_52" depart="156.00" departLane="51o_0" departPos="5.10" departSpeed="0.00" departDelay="0.00" arrival="248.00" arrivalLane="52i_0" arrivalPos="10.00" arrivalSpeed="11.21" duration="92.00" routeLength="1015.10" waitSteps="0" timeLoss="15.34" rerouteNo="0" devices="tripinfo_right_52" vType="typeWE" speedFactor="1.00" vaporized=""/>
    <tripinfo id="left_49" depart="154.00" departLane="52o_0" departPos="5.10" departSpeed="0.00" departDelay="4.00" arrival="250.00" arrivalLane="51i_0" arrivalPos="10.00" arrivalSpeed="11.77" duration="96.00" routeLength="1015.10" waitSteps="0" timeLoss="19.59" rerouteNo="0" devices="tripinfo_left_49" vType="typeWE" speedFactor="1.00" vaporized=""/>
    <tripinfo id="left_50" depart="159.00" departLane="52o_0" departPos="5.10" departSpeed="0.00" departDelay="8.00" arrival="252.00" arrivalLane="51i_0" arrivalPos="10.00" arrivalSpeed="11.43" duration="93.00" routeLength="1015.10" waitSteps="0" timeLoss="16.87" rerouteNo="0" devices="tripinfo_left_50" vType="typeWE" speedFactor="1.00" vaporized=""/>
    <tripinfo id="right_54" depart="161.00" departLane="51o_0" departPos="5.10" departSpeed="0.00" departDelay="2.00" arrival="252.00" arrivalLane="52i_0" arrivalPos="10.00" arrivalSpeed="11.75" duration="91.00" routeLength="1015.10" waitSteps="0" timeLoss="14.68" rerouteNo="0" devices="tripinfo_right_54" vType="typeWE" speedFactor="1.00" vaporized=""/>
    <tripinfo id="right_56" depart="166.00" departLane="51o_0" departPos="5.10" departSpeed="0.00" departDelay="3.00" arrival="256.00" arrivalLane="52i_0" arrivalPos="10.00" arrivalSpeed="11.72" duration="90.00" routeLength="1015.10" waitSteps="0" timeLoss="13.80" rerouteNo="0" devices="tripinfo_right_56" vType="typeWE" speedFactor="1.00" vaporized=""/>
    <tripinfo id="left_51" depart="165.00" departLane="52o_0" departPos="5.10" departSpeed="0.00" departDelay="11.00" arrival="257.00" arrivalLane="51i_0" arrivalPos="10.00" arrivalSpeed="11.59" duration="92.00" routeLength="1015.10" waitSteps="0" timeLoss="15.24" rerouteNo="0" devices="tripinfo_left_51" vType="typeWE" speedFactor="1.00" vaporized=""/>
    <tripinfo id="left_53" depart="170.00" departLane="52o_0" departPos="5.10" departSpeed="0.00" departDelay="12.00" arrival="261.00" arrivalLane="51i_0" arrivalPos="10.00" arrivalSpeed="11.48" duration="91.00" routeLength="1015.10" waitSteps="0" timeLoss="14.15" rerouteNo="0" devices="tripinfo_left_53" vType="typeWE" speedFactor="1.00" vaporized=""/>
    <tripinfo id="right_59" depart="171.00" departLane="51o_0" departPos="5.10" departSpeed="0.00" departDelay="1.00" arrival="261.00" arrivalLane="52i_0" arrivalPos="10.00" arrivalSpeed="11.29" duration="90.00" routeLength="1015.10" waitSteps="0" timeLoss="13.99" rerouteNo="0" devices="tripinfo_right_59" vType="typeWE" speedFactor="1.00" vaporized=""/>
    <tripinfo id="left_55" depart="175.00" departLane="52o_0" departPos="5.10" departSpeed="0.00" departDelay="14.00" arrival="265.00" arrivalLane="51i_0" arrivalPos="10.00" arrivalSpeed="11.07" duration="90.00" routeLength="1015.10" waitSteps="0" timeLoss="13.78" rerouteNo="0" devices="tripinfo_left_55" vType="typeWE" speedFactor="1.00" vaporized=""/>
    <tripinfo id="right_61" depart="177.00" departLane="51o_0" departPos="5.10" departSpeed="0.00" departDelay="0.00" arrival="268.00" arrivalLane="52i_0" arrivalPos="10.00" arrivalSpeed="11.37" duration="91.00" routeLength="1015.10" waitSteps="0" timeLoss="14.79" rerouteNo="0" devices="tripinfo_right_61" vType="typeWE" speedFactor="1.00" vaporized=""/>
    <tripinfo id="left_58" depart="180.00" departLane="52o_0" departPos="5.10" departSpeed="0.00" departDelay="14.00" arrival="271.00" arrivalLane="51i_0" arrivalPos="10.00" arrivalSpeed="11.03" duration="91.00" routeLength="1015.10" waitSteps="0" timeLoss="14.84" rerouteNo="0" devices="tripinfo_left_58" vType="typeWE" speedFactor="1.00" vaporized=""/>
    <tripinfo id="left_63" depart="185.00" departLane="52o_0" departPos="5.10" departSpeed="0.00" departDelay="2.00" arrival="277.00" arrivalLane="51i_0" arrivalPos="10.00" arrivalSpeed="11.46" duration="92.00" routeLength="1015.10" waitSteps="0" timeLoss="15.77" rerouteNo="0" devices="tripinfo_left_63" vType="typeWE" speedFactor="1.00" vaporized=""/>
    <tripinfo id="left_65" depart="192.00" departLane="52o_0" departPos="5.10" departSpeed="0.00" departDelay="0.00" arrival="283.00" arrivalLane="51i_0" arrivalPos="10.00" arrivalSpeed="11.24" duration="91.00" routeLength="1015.10" waitSteps="0" timeLoss="15.09" rerouteNo="0" devices="tripinfo_left_65" vType="typeWE" speedFactor="1.00" vaporized=""/>
    <tripinfo id="left_66" depart="197.00" departLane="52o_0" departPos="5.10" departSpeed="0.00" departDelay="4.00" arrival="287.00" arrivalLane="51i_0" arrivalPos="10.00" arrivalSpeed="11.57" duration="90.00" routeLength="1015.10" waitSteps="0" timeLoss="14.07" rerouteNo="0" devices="tripinfo_left_66" vType="typeWE" speedFactor="1.00" vaporized=""/>
    <tripinfo id="right_69" depart="196.00" departLane="51o_0" departPos="5.10" departSpeed="0.00" departDelay="0.00" arrival="288.00" arrivalLane="52i_0" arrivalPos="10.00" arrivalSpeed="11.58" duration="92.00" routeLength="1015.10" waitSteps="0" timeLoss="15.30" rerouteNo="0" devices="tripinfo_right_69" vType="typeWE" speedFactor="1.00" vaporized=""/>
    <tripinfo id="down_47" depart="145.00" departLane="54o_0" departPos="5.10" departSpeed="0.00" departDelay="0.00" arrival="296.00" arrivalLane="53i_0" arrivalPos="10.00" arrivalSpeed="11.18" duration="151.00" routeLength="1015.10" waitSteps="48" timeLoss="75.08" rerouteNo="0" devices="tripinfo_down_47" vType="typeNS" speedFactor="1.00" vaporized=""/>
    <tripinfo id="up_45" depart="140.00" departLane="53o_0" departPos="5.10" departSpeed="0.00" departDelay="0.00" arrival="297.00" arrivalLane="54i_0" arrivalPos="10.00" arrivalSpeed="11.81" duration="157.00" routeLength="1015.10" waitSteps="55" timeLoss="80.48" rerouteNo="0" devices="tripinfo_up_45" vType="typeNS" speedFactor="1.00" vaporized=""/>
    <tripinfo id="down_62" depart="178.00" departLane="54o_0" departPos="5.10" departSpeed="0.00" departDelay="0.00" arrival="298.00" arrivalLane="53i_0" arrivalPos="10.00" arrivalSpeed="11.30" duration="120.00" routeLength="1015.10" waitSteps="17" timeLoss="44.07" rerouteNo="0" devices="tripinfo_down_62" vType="typeNS" speedFactor="1.00" vaporized=""/>
    <tripinfo id="up_57" depart="165.00" departLane="53o_0" departPos="5.10" departSpeed="0.00" departDelay="0.00" arrival="299.00" arrivalLane="54i_0" arrivalPos="10.00" arrivalSpeed="11.61" duration="134.00" routeLength="1015.10" waitSteps="30" timeLoss="57.85" rerouteNo="0" devices="tripinfo_up_57" vType="typeNS" speedFactor="1.00" vaporized=""/>
    <tripinfo id="down_74" depart="203.00" departLane="54o_0" departPos="5.10" departSpeed="0.00" departDelay="0.00" arrival="300.00" arrivalLane="53i_0" arrivalPos="10.00" arrivalSpeed="11.56" duration="97.00" routeLength="1015.10" waitSteps="0" timeLoss="20.98" rerouteNo="0" devices="tripinfo_down_74" vType="typeNS" speedFactor="1.00" vaporized=""/>
    <tripinfo id="up_60" depart="176.00" departLane="53o_0" departPos="5.10" departSpeed="0.00" departDelay="2.00" arrival="301.00" arrivalLane="54i_0" arrivalPos="10.00" arrivalSpeed="11.63" duration="125.00" routeLength="1015.10" waitSteps="20" timeLoss="48.65" rerouteNo="0" devices="tripinfo_up_60" vType="typeNS" speedFactor="1.00" vaporized=""/>
    <tripinfo id="down_76" depart="208.00" departLane="54o_0" departPos="5.10" departSpeed="0.00" departDelay="3.00" arrival="302.00" arrivalLane="53i_0" arrivalPos="10.00" arrivalSpeed="11.40" duration="94.00" routeLength="1015.10" waitSteps="0" timeLoss="17.68" rerouteNo="0" devices="tripinfo_down_76" vType="typeNS" speedFactor="1.00" vaporized=""/>
    <tripinfo id="up_64" depart="192.00" departLane="53o_0" departPos="5.10" departSpeed="0.00" departDelay="2.00" arrival="303.00" arrivalLane="54i_0" arrivalPos="10.00" arrivalSpeed="11.59" duration="111.00" routeLength="1015.10" waitSteps="6" timeLoss="34.58" rerouteNo="0" devices="tripinfo_up_64" vType="typeNS" speedFactor="1.00" vaporized=""/>
    <tripinfo id="up_67" depart="197.00" departLane="53o_0" departPos="5.10" departSpeed="0.00" departDelay="3.00" arrival="305.00" arrivalLane="54i_0" arrivalPos="10.00" arrivalSpeed="11.35" duration="108.00" routeLength="1015.10" waitSteps="3" timeLoss="31.50" rerouteNo="0" devices="tripinfo_up_67" vType="typeNS" speedFactor="1.00" vaporized=""/>
    <tripinfo id="up_75" depart="204.00" departLane="53o_0" departPos="5.10" departSpeed="0.00" departDelay="1.00" arrival="306.00" arrivalLane="54i_0" arrivalPos="10.00" arrivalSpeed="11.63" duration="102.00" routeLength="1015.10" waitSteps="0" timeLoss="26.18" rerouteNo="0" devices="tripinfo_up_75" vType="typeNS" speedFactor="1.00" vaporized=""/>
    <tripinfo id="up_78" depart="212.00" departLane="53o_0" departPos="5.10" departSpeed="0.00" departDelay="0.00" arrival="308.00" arrivalLane="54i_0" arrivalPos="10.00" arrivalSpeed="11.44" duration="96.00" routeLength="1015.10" waitSteps="0" timeLoss="19.96" rerouteNo="0" devices="tripinfo_up_78" vType="typeNS" speedFactor="1.00" vaporized=""/>
    <tripinfo id="up_81" depart="218.00" departLane="53o_0" departPos="5.10" departSpeed="0.00" departDelay="0.00" arrival="310.00" arrivalLane="54i_0" arrivalPos="10.00" arrivalSpeed="11.54" duration="92.00" routeLength="1015.10" waitSteps="0" timeLoss="15.96" rerouteNo="0" devices="tripinfo_up_81" vType="typeNS" speedFactor="1.00" vaporized=""/>
    <tripinfo id="down_80" depart="219.00" departLane="54o_0" departPos="5.10" departSpeed="0.00" departDelay="1.00" arrival="311.00" arrivalLane="53i_0" arrivalPos="10.00" arrivalSpeed="11.63" duration="92.00" routeLength="1015.10" waitSteps="0" timeLoss="15.31" rerouteNo="0" devices="tripinfo_down_80" vType="typeNS" speedFactor="1.00" vaporized=""/>
    <tripinfo id="up_82" depart="223.00" departLane="53o_0" departPos="5.10" departSpeed="0.00" departDelay="4.00" arrival="314.00" arrivalLane="54i_0" arrivalPos="10.00" arrivalSpeed="11.00" duration="91.00" routeLength="1015.10" waitSteps="0" timeLoss="14.88" rerouteNo="0" devices="tripinfo_up_82" vType="typeNS" speedFactor="1.00" vaporized=""/>
    <tripinfo id="up_84" depart="228.00" departLane="53o_0" departPos="5.10" departSpeed="0.00" departDelay="3.00" arrival="319.00" arrivalLane="54i_0" arrivalPos="10.00" arrivalSpeed="11.35" duration="91.00" routeLength="1015.10" waitSteps="0" timeLoss="14.72" rerouteNo="0" devices="tripinfo_up_84" vType="typeNS" speedFactor="1.00" vaporized=""/>
    <tripinfo id="down_88" depart="234.00" departLane="54o_0" departPos="5.10" departSpeed="0.00" departDelay="0.00" arrival="325.00" arrivalLane="53i_0" arrivalPos="10.00" arrivalSpeed="11.45" duration="91.00" routeLength="1015.10" waitSteps="0" timeLoss="14.86" rerouteNo="0" devices="tripinfo_down_88" vType="typeNS" speedFactor="1.00" vaporized=""/>
    <tripinfo id="up_90" depart="235.00" departLane="53o_0" departPos="5.10" departSpeed="0.00" departDelay="0.00" arrival="326.00" arrivalLane="54i_0" arrivalPos="10.00" arrivalSpeed="11.65" duration="91.00" routeLength="1015.10" waitSteps="0" timeLoss="14.84" rerouteNo="0" devices="tripinfo_up_90" vType="typeNS" speedFactor="1.00" vaporized=""/>
    <tripinfo id="up_93" depart="244.00" departLane="53o_0" departPos="5.10" departSpeed="0.00" departDelay="0.00" arrival="335.00" arrivalLane="54i_0" arrivalPos="10.00" arrivalSpeed="11.62" duration="91.00" routeLength="1015.10" waitSteps="0" timeLoss="14.91" rerouteNo="0" devices="tripinfo_up_93" vType="typeNS" speedFactor="1.00" vaporized=""/>
    <tripinfo id="down_94" depart="245.00" departLane="54o_0" departPos="5.10" departSpeed="0.00" departDelay="0.00" arrival="336.00" arrivalLane="53i_0" arrivalPos="10.00" arrivalSpeed="11.25" duration="91.00" routeLength="1015.10" waitSteps="0" timeLoss="14.97" rerouteNo="0" devices="tripinfo_down_94" vType="typeNS" speedFactor="1.00" vaporized=""/>
    <tripinfo id="up_96" depart="249.00" departLane="53o_0" departPos="5.10" departSpeed="0.00" departDelay="1.00" arrival="341.00" arrivalLane="54i_0" arrivalPos="10.00" arrivalSpeed="11.38" duration="92.00" routeLength="1015.10" waitSteps="0" timeLoss="15.64" rerouteNo="0" devices="tripinfo_up_96" vType="typeNS" speedFactor="1.00" vaporized=""/>