<?xml version="1.0" encoding="UTF-8"?>

<!-- generated on Mon Apr 30 16:34:54 2018 by SUMO Version 0.32.0
<?xml version="1.0" encoding="UTF-8"?>

<configuration xmlns:xsi="http://www.w3.org/2001/XMLSchema-instance" xsi:noNamespaceSchemaLocation="http://sumo.dlr.de/xsd/sumoConfiguration.xsd">

    <input>
        <net-file value="data/cross.net.xml"/>
        <route-files value="data/cross.rou.xml"/>
        <additional-files value="data/cross.det.xml"/>
    </input>

    <output>
        <summary-output value="data/cross.out"/>
        <tripinfo-output value="output/tripinfo8.xml"/>
    </output>

    <time>
        <begin value="0"/>
    </time>

    <report>
        <verbose value="true"/>
        <duration-log.statistics value="true"/>
        <no-step-log value="true"/>
    </report>

    <traci_server>
        <remote-port value="38483"/>
    </traci_server>

</configuration>
-->

<tripinfos xmlns:xsi="http://www.w3.org/2001/XMLSchema-instance" xsi:noNamespaceSchemaLocation="http://sumo.dlr.de/xsd/tripinfo_file.xsd">
    <tripinfo id="down_0" depart="8.00" departLane="54o_0" departPos="5.10" departSpeed="0.00" departDelay="0.00" arrival="99.00" arrivalLane="53i_0" arrivalPos="10.00" arrivalSpeed="11.53" duration="91.00" routeLength="1015.10" waitSteps="0" timeLoss="14.97" rerouteNo="0" devices="tripinfo_down_0" vType="typeNS" speedFactor="1.00" vaporized=""/>
    <tripinfo id="right_1" depart="17.00" departLane="51o_0" departPos="5.10" departSpeed="0.00" departDelay="0.00" arrival="110.00" arrivalLane="52i_0" arrivalPos="10.00" arrivalSpeed="11.74" duration="93.00" routeLength="1015.10" waitSteps="0" timeLoss="16.34" rerouteNo="0" devices="tripinfo_right_1" vType="typeWE" speedFactor="1.00" vaporized=""/>
    <tripinfo id="left_3" depart="19.00" departLane="52o_0" departPos="5.10" departSpeed="0.00" departDelay="0.00" arrival="111.00" arrivalLane="51i_0" arrivalPos="10.00" arrivalSpeed="11.68" duration="92.00" routeLength="1015.10" waitSteps="0" timeLoss="16.01" rerouteNo="0" devices="tripinfo_left_3" vType="typeWE" speedFactor="1.00" vaporized=""/>
    <tripinfo id="left_7" depart="25.00" departLane="52o_0" departPos="5.10" departSpeed="0.00" departDelay="0.00" arrival="116.00" arrivalLane="51i_0" arrivalPos="10.00" arrivalSpeed="11.86" duration="91.00" routeLength="1015.10" waitSteps="0" timeLoss="14.41" rerouteNo="0" devices="tripinfo_left_7" vType="typeWE" speedFactor="1.00" vaporized=""/>
    <tripinfo id="left_8" depart="31.00" departLane="52o_0" departPos="5.10" departSpeed="0.00" departDelay="0.00" arrival="122.00" arrivalLane="51i_0" arrivalPos="10.00" arrivalSpeed="11.40" duration="91.00" routeLength="1015.10" waitSteps="0" timeLoss="14.26" rerouteNo="0" devices="tripinfo_left_8" vType="typeWE" speedFactor="1.00" vaporized=""/>
    <tripinfo id="left_12" depart="40.00" departLane="52o_0" departPos="5.10" departSpeed="0.00" departDelay="0.00" arrival="131.00" arrivalLane="51i_0" arrivalPos="10.00" arrivalSpeed="11.24" duration="91.00" routeLength="1015.10" waitSteps="0" timeLoss="14.76" rerouteNo="0" devices="tripinfo_left_12" vType="typeWE" speedFactor="1.00" vaporized=""/>
    <tripinfo id="left_14" depart="50.00" departLane="52o_0" departPos="5.10" departSpeed="0.00" departDelay="0.00" arrival="143.00" arrivalLane="51i_0" arrivalPos="10.00" arrivalSpeed="11.33" duration="93.00" routeLength="1015.10" waitSteps="0" timeLoss="16.24" rerouteNo="0" devices="tripinfo_left_14" vType="typeWE" speedFactor="1.00" vaporized=""/>
    <tripinfo id="left_16" depart="60.00" departLane="52o_0" departPos="5.10" departSpeed="0.00" departDelay="0.00" arrival="151.00" arrivalLane="51i_0" arrivalPos="10.00" arrivalSpeed="11.45" duration="91.00" routeLength="1015.10" waitSteps="0" timeLoss="14.75" rerouteNo="0" devices="tripinfo_left_16" vType="typeWE" speedFactor="1.00" vaporized=""/>
    <tripinfo id="right_18" depart="65.00" departLane="51o_0" departPos="5.10" departSpeed="0.00" departDelay="0.00" arrival="156.00" arrivalLane="52i_0" arrivalPos="10.00" arrivalSpeed="11.50" duration="91.00" routeLength="1015.10" waitSteps="0" timeLoss="14.75" rerouteNo="0" devices="tripinfo_right_18" vType="typeWE" speedFactor="1.00" vaporized=""/>
    <tripinfo id="left_20" depart="69.00" departLane="52o_0" departPos="5.10" departSpeed="0.00" departDelay="0.00" arrival="159.00" arrivalLane="51i_0" arrivalPos="10.00" arrivalSpeed="11.48" duration="90.00" routeLength="1015.10" waitSteps="0" timeLoss="13.99" rerouteNo="0" devices="tripinfo_left_20" vType="typeWE" speedFactor="1.00" vaporized=""/>
    <tripinfo id="right_21" depart="72.00" departLane="51o_0" departPos="5.10" departSpeed="0.00" departDelay="0.00" arrival="163.00" arrivalLane="52i_0" arrivalPos="10.00" arrivalSpeed="11.75" duration="91.00" routeLength="1015.10" waitSteps="0" timeLoss="14.67" rerouteNo="0" devices="tripinfo_right_21" vType="typeWE" speedFactor="1.00" vaporized=""/>
    <tripinfo id="up_2" depart="17.00" departLane="53o_0" departPos="5.10" departSpeed="0.00" departDelay="0.00" arrival="176.00" arrivalLane="54i_0" arrivalPos="10.00" arrivalSpeed="11.07" duration="159.00" routeLength="1015.10" waitSteps="58" timeLoss="82.95" rerouteNo="0" devices="tripinfo_up_2" vType="typeNS" speedFactor="1.00" vaporized=""/>
    <tripinfo id="down_6" depart="24.00" departLane="54o_0" departPos="5.10" departSpeed="0.00" departDelay="0.00" arrival="177.00" arrivalLane="53i_0" arrivalPos="10.00" arrivalSpeed="11.42" duration="153.00" routeLength="1015.10" waitSteps="50" timeLoss="76.44" rerouteNo="0" devices="tripinfo_down_6" vType="typeNS" speedFactor="1.00" vaporized=""/>
    <tripinfo id="up_4" depart="22.00" departLane="53o_0" departPos="5.10" departSpeed="0.00" departDelay="1.00" arrival="178.00" arrivalLane="54i_0" arrivalPos="10.00" arrivalSpeed="11.50" duration="156.00" routeLength="1015.10" waitSteps="53" timeLoss="80.14" rerouteNo="0" devices="tripinfo_up_4" vType="typeNS" speedFactor="1.00" vaporized=""/>
    <tripinfo id="down_9" depart="31.00" departLane="54o_0" departPos="5.10" departSpeed="0.00" departDelay="0.00" arrival="179.00" arrivalLane="53i_0" arrivalPos="10.00" arrivalSpeed="11.49" duration="148.00" routeLength="1015.10" waitSteps="44" timeLoss="71.44" rerouteNo="0" devices="tripinfo_down_9" vType="typeNS" speedFactor="1.00" vaporized=""/>
    <tripinfo id="up_5" depart="27.00" departLane="53o_0" departPos="5.10" departSpeed="0.00" departDelay="5.00" arrival="180.00" arrivalLane="54i_0" arrivalPos="10.00" arrivalSpeed="11.67" duration="153.00" routeLength="1015.10" waitSteps="51" timeLoss="76.75" rerouteNo="0" devices="tripinfo_up_5" vType="typeNS" speedFactor="1.00" vaporized=""/>
    <tripinfo id="down_15" depart="58.00" departLane="54o_0" departPos="5.10" departSpeed="0.00" departDelay="0.00" arrival="181.00" arrivalLane="53i_0" arrivalPos="10.00" arrivalSpeed="11.65" duration="123.00" routeLength="1015.10" waitSteps="18" timeLoss="46.46" rerouteNo="0" devices="tripinfo_down_15" vType="typeNS" speedFactor="1.00" vaporized=""/>
    <tripinfo id="up_10" depart="35.00" departLane="53o_0" departPos="5.10" departSpeed="0.00" departDelay="0.00" arrival="182.00" arrivalLane="54i_0" arrivalPos="10.00" arrivalSpeed="11.52" duration="147.00" routeLength="1015.10" waitSteps="43" timeLoss="70.72" rerouteNo="0" devices="tripinfo_up_10" vType="typeNS" speedFactor="1.00" vaporized=""/>
    <tripinfo id="down_24" depart="82.00" departLane="54o_0" departPos="5.10" departSpeed="0.00" departDelay="0.00" arrival="183.00" arrivalLane="53i_0" arrivalPos="10.00" arrivalSpeed="11.50" duration="101.00" routeLength="1015.10" waitSteps="0" timeLoss="25.04" rerouteNo="0" devices="tripinfo_down_24" vType="typeNS" speedFactor="1.00" vaporized=""/>
    <tripinfo id="up_11" depart="40.00" departLane="53o_0" departPos="5.10" departSpeed="0.00" departDelay="4.00" arrival="184.00" arrivalLane="54i_0" arrivalPos="10.00" arrivalSpeed="11.41" duration="144.00" routeLength="1015.10" waitSteps="40" timeLoss="67.46" rerouteNo="0" devices="tripinfo_up_11" vType="typeNS" speedFactor="1.00" vaporized=""/>
    <tripinfo id="down_26" depart="87.00" departLane="54o_0" departPos="5.10" departSpeed="0.00" departDelay="2.00" arrival="185.00" arrivalLane="53i_0" arrivalPos="10.00" arrivalSpeed="11.58" duration="98.00" routeLength="1015.10" waitSteps="0" timeLoss="21.86" rerouteNo="0" devices="tripinfo_down_26" vType="typeNS" speedFactor="1.00" vaporized=""/>
    <tripinfo id="up_13" depart="45.00" departLane="53o_0" departPos="5.10" departSpeed="0.00" departDelay="2.00" arrival="186.00" arrivalLane="54i_0" arrivalPos="10.00" arrivalSpeed="11.41" duration="141.00" routeLength="1015.10" waitSteps="36" timeLoss="64.77" rerouteNo="0" devices="tripinfo_up_13" vType="typeNS" speedFactor="1.00" vaporized=""/>
    <tripinfo id="down_29" depart="93.00" departLane="54o_0" departPos="5.10" departSpeed="0.00" departDelay="0.00" arrival="187.00" arrivalLane="53i_0" arrivalPos="10.00" arrivalSpeed="11.27" duration="94.00" routeLength="1015.10" waitSteps="0" timeLoss="17.60" rerouteNo="0" devices="tripinfo_down_29" vType="typeNS" speedFactor="1.00" vaporized=""/>
    <tripinfo id="up_17" depart="61.00" departLane="53o_0" departPos="5.10" departSpeed="0.00" departDelay="0.00" arrival="188.00" arrivalLane="54i_0" arrivalPos="10.00" arrivalSpeed="11.43" duration="127.00" routeLength="1015.10" waitSteps="22" timeLoss="50.61" rerouteNo="0" devices="tripinfo_up_17" vType="typeNS" speedFactor="1.00" vaporized=""/>
    <tripinfo id="up_19" depart="66.00" departLane="53o_0" departPos="5.10" departSpeed="0.00" departDelay="0.00" arrival="190.00" arrivalLane="54i_0" arrivalPos="10.00" arrivalSpeed="11.51" duration="124.00" routeLength="1015.10" waitSteps="18" timeLoss="47.70" rerouteNo="0" devices="tripinfo_up_19" vType="typeNS" speedFactor="1.00" vaporized=""/>
    <tripinfo id="up_22" depart="74.00" departLane="53o_0" departPos="5.10" departSpeed="0.00" departDelay="0.00" arrival="192.00" arrivalLane="54i_0" arrivalPos="10.00" arrivalSpeed="11.57" duration="118.00" routeLength="1015.10" waitSteps="12" timeLoss="41.52" rerouteNo="0" devices="tripinfo_up_22" vType="typeNS" speedFactor="1.00" vaporized=""/>
    <tripinfo id="up_31" depart="102.00" departLane="53o_0" departPos="5.10" departSpeed="0.00" departDelay="0.00" arrival="194.00" arrivalLane="54i_0" arrivalPos="10.00" arrivalSpeed="11.69" duration="92.00" routeLength="1015.10" waitSteps="0" timeLoss="15.46" rerouteNo="0" devices="tripinfo_up_31" vType="typeNS" speedFactor="1.00" vaporized=""/>
    <tripinfo id="up_33" depart="110.00" departLane="53o_0" departPos="5.10" departSpeed="0.00" departDelay="0.00" arrival="202.00" arrivalLane="54i_0" arrivalPos="10.00" arrivalSpeed="11.40" duration="92.00" routeLength="1015.10" waitSteps="0" timeLoss="15.33" rerouteNo="0" devices="tripinfo_up_33" vType="typeNS" speedFactor="1.00" vaporized=""/>
    <tripinfo id="up_34" depart="115.00" departLane="53o_0" departPos="5.10" departSpeed="0.00" departDelay="2.00" arrival="206.00" arrivalLane="54i_0" arrivalPos="10.00" arrivalSpeed="11.05" duration="91.00" routeLength="1015.10" waitSteps="0" timeLoss="14.84" rerouteNo="0" devices="tripinfo_up_34" vType="typeNS" speedFactor="1.00" vaporized=""/>
    <tripinfo id="up_36" depart="120.00" departLane="53o_0" departPos="5.10" departSpeed="0.00" departDelay="3.00" arrival="212.00" arrivalLane="54i_0" arrivalPos="10.00" arrivalSpeed="11.52" duration="92.00" routeLength="1015.10" waitSteps="0" timeLoss="15.82" rerouteNo="0" devices="tripinfo_up_36" vType="typeNS" speedFactor="1.00" vaporized=""/>
    <tripinfo id="down_39" depart="123.00" departLane="54o_0" departPos="5.10" departSpeed="0.00" departDelay="0.00" arrival="215.00" arrivalLane="53i_0" arrivalPos="10.00" arrivalSpeed="11.26" duration="92.00" routeLength="1015.10" waitSteps="0" timeLoss="15.74" rerouteNo="0" devices="tripinfo_down_39" vType="typeNS" speedFactor="1.00" vaporized=""/>
    <tripinfo id="up_37" depart="126.00" departLane="53o_0" departPos="5.10" departSpeed="0.00" departDelay="6.00" arrival="217.00" arrivalLane="54i_0" arrivalPos="10.00" arrivalSpeed="10.94" duration="91.00" routeLength="1015.10" waitSteps="0" timeLoss="14.81" rerouteNo="0" devices="tripinfo_up_37" vType="typeNS" speedFactor="1.00" vaporized=""/>
    <tripinfo id="right_25" depart="83.00" departLane="51o_0" departPos="5.10" departSpeed="0.00" departDelay="0.00" arrival="236.00" arrivalLane="52i_0" arrivalPos="10.00" arrivalSpeed="11.24" duration="153.00" routeLength="1015.10" waitSteps="52" timeLoss="76.44" rerouteNo="0" devices="tripinfo_right_25" vType="typeWE" speedFactor="1.00" vaporized=""/>
    <tripinfo id="left_23" depart="77.00" departLane="52o_0" departPos="5.10" departSpeed="0.00" departDelay="0.00" arrival="236.00" arrivalLane="51i_0" arrivalPos="10.00" arrivalSpeed="11.53" duration="159.00" routeLength="1015.10" waitSteps="60" timeLoss="82.67" rerouteNo="0" devices="tripinfo_left_23" vType="typeWE" speedFactor="1.00" vaporized=""/>
    <tripinfo id="right_27" depart="90.00" departLane="51o_0" departPos="5.10" departSpeed="0.00" departDelay="0.00" arrival="238.00" arrivalLane="52i_0" arrivalPos="10.00" arrivalSpeed="11.58" duration="148.00" routeLength="1015.10" waitSteps="46" timeLoss="71.67" rerouteNo="0" devices="tripinfo_right_27" vType="typeWE" speedFactor="1.00" vaporized=""/>
    <tripinfo id="left_32" depart="103.00" departLane="52o_0" departPos="5.10" departSpeed="0.00" departDelay="0.00" arrival="239.00" arrivalLane="51i_0" arrivalPos="10.00" arrivalSpeed="11.71" duration="136.00" routeLength="1015.10" waitSteps="32" timeLoss="59.85" rerouteNo="0" devices="tripinfo_left_32" vType="typeWE" speedFactor="1.00" vaporized=""/>
    <tripinfo id="right_28" depart="95.00" departLane="51o_0" departPos="5.10" departSpeed="0.00" departDelay="4.00" arrival="240.00" arrivalLane="52i_0" arrivalPos="10.00" arrivalSpeed="11.79" duration="145.00" routeLength="1015.10" waitSteps="44" timeLoss="68.42" rerouteNo="0" devices="tripinfo_right_28" vType="typeWE" speedFactor="1.00" vaporized=""/>
    <tripinfo id="left_35" depart="117.00" departLane="52o_0" departPos="5.10" departSpeed="0.00" departDelay="0.00" arrival="241.00" arrivalLane="51i_0" arrivalPos="10.00" arrivalSpeed="11.36" duration="124.00" routeLength="1015.10" waitSteps="20" timeLoss="47.77" rerouteNo="0" devices="tripinfo_left_35" vType="typeWE" speedFactor="1.00" vaporized=""/>
    <tripinfo id="right_30" depart="100.00" departLane="51o_0" departPos="5.10" departSpeed="0.00" departDelay="1.00" arrival="242.00" arrivalLane="52i_0" arrivalPos="10.00" arrivalSpeed="11.47" duration="142.00" routeLength="1015.10" waitSteps="39" timeLoss="65.66" rerouteNo="0" devices="tripinfo_right_30" vType="typeWE" speedFactor="1.00" vaporized=""/>
    <tripinfo id="left_40" depart="124.00" departLane="52o_0" departPos="5.10" departSpeed="0.00" departDelay="0.00" arrival="243.00" arrivalLane="51i_0" arrivalPos="10.00" arrivalSpeed="11.38" duration="119.00" routeLength="1015.10" waitSteps="15" timeLoss="42.45" rerouteNo="0" devices="tripinfo_left_40" vType="typeWE" speedFactor="1.00" vaporized=""/>
    <tripinfo id="right_38" depart="122.00" departLane="51o_0" departPos="5.10" departSpeed="0.00" departDelay="0.00" arrival="244.00" arrivalLane="52i_0" arrivalPos="10.00" arrivalSpeed="11.61" duration="122.00" routeLength="1015.10" waitSteps="18" timeLoss="45.63" rerouteNo="0" devices="tripinfo_right_38" vType="typeWE" speedFactor="1.00" vaporized=""/>
    <tripinfo id="left_44" depart="142.00" departLane="52o_0" departPos="5.10" departSpeed="0.00" departDelay="0.00" arrival="245.00" arrivalLane="51i_0" arrivalPos="10.00" arrivalSpeed="11.53" duration="103.00" routeLength="1015.10" waitSteps="0" timeLoss="26.48" rerouteNo="0" devices="tripinfo_left_44" vType="typeWE" speedFactor="1.00" vaporized=""/>
    <tripinfo id="right_41" depart="137.00" departLane="51o_0" departPos="5.10" departSpeed="0.00" departDelay="0.00" arrival="246.00" arrivalLane="52i_0" arrivalPos="10.00" arrivalSpeed="11.78" duration="109.00" routeLength="1015.10" waitSteps="5" timeLoss="33.05" rerouteNo="0" devices="tripinfo_right_41" vType="typeWE" speedFactor="1.00" vaporized=""/>
    <tripinfo id="right_42" depart="143.00" departLane="51o_0" departPos="5.10" departSpeed="0.00" departDelay="5.00" arrival="249.00" arrivalLane="52i_0" arrivalPos="10.00" arrivalSpeed="11.47" duration="106.00" routeLength="1015.10" waitSteps="1" timeLoss="29.31" rerouteNo="0" devices="tripinfo_right_42" vType="typeWE" speedFactor="1.00" vaporized=""/>
    <tripinfo id="left_50" depart="158.00" departLane="52o_0" departPos="5.10" departSpeed="0.00" departDelay="0.00" arrival="249.00" arrivalLane="51i_0" arrivalPos="10.00" arrivalSpeed="11.79" duration="91.00" routeLength="1015.10" waitSteps="0" timeLoss="14.61" rerouteNo="0" devices="tripinfo_left_50" vType="typeWE" speedFactor="1.00" vaporized=""/>
    <tripinfo id="right_45" depart="148.00" departLane="51o_0" departPos="5.10" departSpeed="0.00" departDelay="5.00" arrival="250.00" arrivalLane="52i_0" arrivalPos="10.00" arrivalSpeed="11.34" duration="102.00" routeLength="1015.10" waitSteps="0" timeLoss="26.05" rerouteNo="0" devices="tripinfo_right_45" vType="typeWE" speedFactor="1.00" vaporized=""/>
    <tripinfo id="right_46" depart="153.00" departLane="51o_0" departPos="5.10" departSpeed="0.00" departDelay="9.00" arrival="252.00" arrivalLane="52i_0" arrivalPos="10.00" arrivalSpeed="11.29" duration="99.00" routeLength="1015.10" waitSteps="0" timeLoss="22.88" rerouteNo="0" devices="tripinfo_right_46" vType="typeWE" speedFactor="1.00" vaporized=""/>
    <tripinfo id="right_49" depart="159.00" departLane="51o_0" departPos="5.10" departSpeed="0.00" departDelay="2.00" arrival="254.00" arrivalLane="52i_0" arrivalPos="10.00" arrivalSpeed="11.45" duration="95.00" routeLength="1015.10" waitSteps="0" timeLoss="18.68" rerouteNo="0" devices="tripinfo_right_49" vType="typeWE" speedFactor="1.00" vaporized=""/>
    <tripinfo id="right_53" depart="167.00" departLane="51o_0" departPos="5.10" departSpeed="0.00" departDelay="0.00" arrival="258.00" arrivalLane="52i_0" arrivalPos="10.00" arrivalSpeed="11.69" duration="91.00" routeLength="1015.10" waitSteps="0" timeLoss="14.75" rerouteNo="0" devices="tripinfo_right_53" vType="typeWE" speedFactor="1.00" vaporized=""/>
    <tripinfo id="left_55" depart="174.00" departLane="52o_0" departPos="5.10" departSpeed="0.00" departDelay="0.00" arrival="265.00" arrivalLane="51i_0" arrivalPos="10.00" arrivalSpeed="11.61" duration="91.00" routeLength="1015.10" waitSteps="0" timeLoss="14.65" rerouteNo="0" devices="tripinfo_left_55" vType="typeWE" speedFactor="1.00" vaporized=""/>
    <tripinfo id="right_60" depart="187.00" departLane="51o_0" departPos="5.10" departSpeed="0.00" departDelay="0.00" arrival="279.00" arrivalLane="52i_0" arrivalPos="10.00" arrivalSpeed="11.28" duration="92.00" routeLength="1015.10" waitSteps="0" timeLoss="15.32" rerouteNo="0" devices="tripinfo_right_60" vType="typeWE" speedFactor="1.00" vaporized=""/>
    <tripinfo id="down_47" depart="147.00" departLane="54o_0" departPos="5.10" departSpeed="0.00" departDelay="0.00" arrival="296.00" arrivalLane="53i_0" arrivalPos="10.00" arrivalSpeed="10.83" duration="149.00" routeLength="1015.10" waitSteps="48" timeLoss="72.99" rerouteNo="0" devices="tripinfo_down_47" vType="typeNS" speedFactor="1.00" vaporized=""/>
    <tripinfo id="up_43" depart="141.00" departLane="53o_0" departPos="5.10" departSpeed="0.00" departDelay="0.00" arrival="297.00" arrivalLane="54i_0" arrivalPos="10.00" arrivalSpeed="11.61" duration="156.00" routeLength="1015.10" waitSteps="54" timeLoss="79.72" rerouteNo="0" devices="tripinfo_up_43" vType="typeNS" speedFactor="1.00" vaporized=""/>
    <tripinfo id="down_51" depart="164.00" departLane="54o_0" departPos="5.10" departSpeed="0.00" departDelay="0.00" arrival="298.00" arrivalLane="53i_0" arrivalPos="10.00" arrivalSpeed="10.90" duration="134.00" routeLength="1015.10" waitSteps="32" timeLoss="57.95" rerouteNo="0" devices="tripinfo_down_51" vType="typeNS" speedFactor="1.00" vaporized=""/>
    <tripinfo id="up_48" depart="148.00" departLane="53o_0" departPos="5.10" departSpeed="0.00" departDelay="0.00" arrival="299.00" arrivalLane="54i_0" arrivalPos="10.00" arrivalSpeed="11.42" duration="151.00" routeLength="1015.10" waitSteps="48" timeLoss="74.50" rerouteNo="0" devices="tripinfo_up_48" vType="typeNS" speedFactor="1.00" vaporized=""/>
    <tripinfo id="down_56" depart="176.00" departLane="54o_0" departPos="5.10" departSpeed="0.00" departDelay="1.00" arrival="301.00" arrivalLane="53i_0" arrivalPos="10.00" arrivalSpeed="11.69" duration="125.00" routeLength="1015.10" waitSteps="21" timeLoss="48.45" rerouteNo="0" devices="tripinfo_down_56" vType="typeNS" speedFactor="1.00" vaporized=""/>
    <tripinfo id="up_52" depart="165.00" departLane="53o_0" departPos="5.10" departSpeed="0.00" departDelay="0.00" arrival="301.00" arrivalLane="54i_0" arrivalPos="10.00" arrivalSpeed="11.48" duration="136.00" routeLength="1015.10" waitSteps="32" timeLoss="59.52" rerouteNo="0" devices="tripinfo_up_52" vType="typeNS" speedFactor="1.00" vaporized=""/>
    <tripinfo id="down_58" depart="194.00" departLane="54o_0" departPos="5.10" departSpeed="0.00" departDelay="10.00" arrival="302.00" arrivalLane="53i_0" arrivalPos="10.00" arrivalSpeed="11.53" duration="108.00" routeLength="1015.10" waitSteps="4" timeLoss="32.15" rerouteNo="0" devices="tripinfo_down_58" vType="typeNS" speedFactor="1.00" vaporized=""/>
    <tripinfo id="up_54" depart="172.00" departLane="53o_0" departPos="5.10" departSpeed="0.00" departDelay="0.00" arrival="303.00" arrivalLane="54i_0" arrivalPos="10.00" arrivalSpeed="11.49" duration="131.00" routeLength="1015.10" waitSteps="26" timeLoss="54.44" rerouteNo="0" devices="tripinfo_up_54" vType="typeNS" speedFactor="1.00" vaporized=""/>
    <tripinfo id="down_61" depart="206.00" departLane="54o_0" departPos="5.10" departSpeed="0.00" departDelay="1.00" arrival="304.00" arrivalLane="53i_0" arrivalPos="10.00" arrivalSpeed="10.84" duration="98.00" routeLength="1015.10" waitSteps="0" timeLoss="22.05" rerouteNo="0" devices="tripinfo_down_61" vType="typeNS" speedFactor="1.00" vaporized=""/>
    <tripinfo id="up_57" depart="187.00" departLane="53o_0" departPos="5.10" departSpeed="0.00" departDelay="4.00" arrival="305.00" arrivalLane="54i_0" arrivalPos="10.00" arrivalSpeed="11.52" duration="118.00" routeLength="1015.10" waitSteps="13" timeLoss="41.43" rerouteNo="0" devices="tripinfo_up_57" vType="typeNS" speedFactor="1.00" vaporized=""/>
    <tripinfo id="up_59" depart="192.00" departLane="53o_0" departPos="5.10" departSpeed="0.00" departDelay="8.00" arrival="307.00" arrivalLane="54i_0" arrivalPos="10.00" arrivalSpeed="11.54" duration="115.00" routeLength="1015.10" waitSteps="9" timeLoss="39.05" rerouteNo="0" devices="tripinfo_up_59" vType="typeNS" speedFactor="1.00" vaporized=""/>
    <tripinfo id="up_62" depart="206.00" departLane="53o_0" departPos="5.10" departSpeed="0.00" departDelay="0.00" arrival="309.00" arrivalLane="54i_0" arrivalPos="10.00" arrivalSpeed="11.41" duration="103.00" routeLength="1015.10" waitSteps="0" timeLoss="26.99" rerouteNo="0" devices="tripinfo_up_62" vType="typeNS" speedFactor="1.00" vaporized=""/>
    <tripinfo id="up_68" depart="223.00" departLane="53o_0" departPos="5.10" departSpeed="0.00" departDelay="0.00" arrival="315.00" arrivalLane="54i_0" arrivalPos="10.00" arrivalSpeed="11.21" duration="92.00" routeLength="1015.10" waitSteps="0" timeLoss="15.72" rerouteNo="0" devices="tripinfo_up_68" vType="typeNS" speedFactor="1.00" vaporized=""/>
    <tripinfo id="down_69" depart="234.00" departLane="54o_0" departPos="5.10" departSpeed="0.00" departDelay="0.00" arrival="326.00" arrivalLane="53i_0" arrivalPos="10.00" arrivalSpeed="11.44" duration="92.00" routeLength="1015.10" waitSteps="0" timeLoss="15.44" rerouteNo="0" devices="tripinfo_down_69" vType="typeNS" speedFactor="1.00" vaporized=""/>
    <tripinfo id="up_71" depart="245.00" departLane="53o_0" departPos="5.10" departSpeed="0.00" departDelay="0.00" arrival="337.00" arrivalLane="54i_0" arrivalPos="10.00" arrivalSpeed="11.27" duration="92.00" routeLength="1015.10" waitSteps="0" timeLoss="16.07" rerouteNo="0" devices="tripinfo_up_71" vType="typeNS" speedFactor="1.00" vaporized=""/>
    <tripinfo id="up_72" depart="250.00" departLane="53o_0" departPos="5.10" departSpeed="0.00" departDelay="4.00" arrival="341.00" arrivalLane="54i_0" arrivalPos="10.00" arrivalSpeed="11.80" duration="91.00" routeLength="1015.10" waitSteps="0" timeLoss="14.64" rerouteNo="0" devices="tripinfo_up_72" vType="typeNS" speedFactor="1.00" vaporized=""/>
    <tripinfo id="left_63" depart="210.00" departLane="52o_0" departPos="5.10" departSpeed="0.00" departDelay="0.00" arrival="356.00" arrivalLane="51i_0" arrivalPos="10.00" arrivalSpeed="11.41" duration="146.00" routeLength="1015.10" waitSteps="46" timeLoss="69.74" rerouteNo="0" devices="tripinfo_left_63" vType="typeWE" speedFactor="1.00" vaporized=""/>
    <tripinfo id="right_64" depart="211.00" departLane="51o_0" departPos="5.10" departSpeed="0.00" departDelay="0.00" arrival="357.00" arrivalLane="52i_0" arrivalPos="10.00" arrivalSpeed="11.47" duration="146.00" routeLength="1015.10" waitSteps="44" timeLoss="69.45" rerouteNo="0" devices="tripinfo_right_64" vType="typeWE" speedFactor="1.00" vaporized=""/>
    <tripinfo id="left_74" depart="250.00" departLane="52o_0" departPos="5.10" departSpeed="0.00" departDelay="2.00" arrival="358.00" arrivalLane="51i_0" arrivalPos="10.00" arrivalSpeed="11.48" duration="108.00" routeLength="1015.10" waitSteps="6" timeLoss="31.60" rerouteNo="0" devices="tripinfo_left_74" vType="typeWE" speedFactor="1.00" vaporized=""/>
    <tripinfo id="right_65" depart="216.00" departLane="51o_0" departPos="5.10" departSpeed="0.00" departDelay="4.00" arrival="358.00" arrivalLane="52i_0" arrivalPos="10.00" arrivalSpeed="11.68" duration="142.00" routeLength="1015.10" waitSteps="39" timeLoss="66.18" rerouteNo="0" devices="tripinfo_right_65" vType="typeWE" speedFactor="1.00" vaporized=""/>
    <tripinfo id="left_75" depart="255.00" departLane="52o_0" departPos="5.10" departSpeed="0.00" departDelay="6.00" arrival="361.00" arrivalLane="51i_0" arrivalPos="10.00" arrivalSpeed="11.73" duration="106.00" routeLength="1015.10" waitSteps="0" timeLoss="29.49" rerouteNo="0" devices="tripinfo_left_75" vType="typeWE" speedFactor="1.00" vaporized=""/>
    <tripinfo id="right_66" depart="222.00" departLane="51o_0" departPos="5.10" departSpeed="0.00" departDelay="1.00" arrival="361.00" arrivalLane="52i_0" arrivalPos="10.00" arrivalSpeed="11.25" duration="139.00" routeLength="1015.10" waitSteps="35" timeLoss="62.94" rerouteNo="0" devices="tripinfo_right_66" vType="typeWE" speedFactor="1.00" vaporized=""/>
    <tripinfo id="left_76" depart="261.00" departLane="52o_0" departPos="5.10" departSpeed="0.00" departDelay="11.00" arrival="363.00" arrivalLane="51i_0" arrivalPos="10.00" arrivalSpeed="11.47" duration="102.00" routeLength="1015.10" waitSteps="0" timeLoss="25.79" rerouteNo="0" devices="tripinfo_left_76" vType="typeWE" speedFactor="1.00" vaporized=""/>
    <tripinfo id="right_67" depart="227.00" departLane="51o_0" departPos="5.10" departSpeed="0.00" departDelay="4.00" arrival="364.00" arrivalLane="52i_0" arrivalPos="10.00" arrivalSpeed="11.55" duration="137.00" routeLength="1015.10" waitSteps="32" timeLoss="60.33" rerouteNo="0" devices="tripinfo_right_67" vType="typeWE" speedFactor="1.00" vaporized=""/>
    <tripinfo id="left_78" depart="266.00" departLane="52o_0" departPos="5.10" departSpeed="0.00" departDelay="0.00" arrival="365.00" arrivalLane="51i_0" arrivalPos="10.00" arrivalSpeed="11.46" duration="99.00" routeLength="1015.10" waitSteps="0" timeLoss="22.53" rerouteNo="0" devices="tripinfo_left_78" vType="typeWE" speedFactor="1.00" vaporized=""/>
    <tripinfo id="right_70" depart="245.00" departLane="51o_0" departPos="5.10" departSpeed="0.00" departDelay="7.00" arrival="365.00" arrivalLane="52i_0" arrivalPos="10.00" arrivalSpeed="11.55" duration="120.00" routeLength="1015.10" waitSteps="15" timeLoss="44.28" rerouteNo="0" devices="tripinfo_right_70" vType="typeWE" speedFactor="1.00" vaporized=""/>
    <tripinfo id="left_79" depart="271.00" departLane="52o_0" departPos="5.10" departSpeed="0.00" departDelay="3.00" arrival="367.00" arrivalLane="51i_0" arrivalPos="10.00" arrivalSpeed="11.21" duration="96.00" routeLength="1015.10" waitSteps="0" timeLoss="19.36" rerouteNo="0" devices="tripinfo_left_79" vType="typeWE" speedFactor="1.00" vaporized=""/>
    <tripinfo id="right_73" depart="250.00" departLane="51o_0" departPos="5.10" departSpeed="0.00" departDelay="2.00" arrival="367.00" arrivalLane="52i_0" arrivalPos="10.00" arrivalSpeed="11.78" duration="117.00" routeLength="1015.10" waitSteps="14" timeLoss="41.13" rerouteNo="0" devices="tripinfo_right_73" vType="typeWE" speedFactor="1.00" vaporized=""/>
    <tripinfo id="left_82" depart="276.00" departLane="52o_0" departPos="5.10" departSpeed="0.00" departDelay="4.00" arrival="368.00" arrivalLane="51i_0" arrivalPos="10.00" arrivalSpeed="11.60" duration="92.00" routeLength="1015.10" waitSteps="0" timeLoss="16.12" rerouteNo="0" devices="tripinfo_left_82" vType="typeWE" speedFactor="1.00" vaporized=""/>
    <tripinfo id="right_81" depart="271.00" departLane="51o_0" departPos="5.10" departSpeed="0.00" departDelay="0.00" arrival="369.00" arrivalLane="52i_0" arrivalPos="10.00" arrivalSpeed="11.46" duration="98.00" routeLength="1015.10" waitSteps="0" timeLoss="22.06" rerouteNo="0" devices="tripinfo_right_81" vType="typeWE" speedFactor="1.00" vaporized=""/>