<?xml version="1.0" encoding="UTF-8"?>

<!-- generated on Mon Apr 30 16:36:00 2018 by SUMO Version 0.32.0
<?xml version="1.0" encoding="UTF-8"?>

<configuration xmlns:xsi="http://www.w3.org/2001/XMLSchema-instance" xsi:noNamespaceSchemaLocation="http://sumo.dlr.de/xsd/sumoConfiguration.xsd">

    <input>
        <net-file value="data/cross.net.xml"/>
        <route-files value="data/cross.rou.xml"/>
        <additional-files value="data/cross.det.xml"/>
    </input>

    <output>
        <summary-output value="data/cross.out"/>
        <tripinfo-output value="output/tripinfo37.xml"/>
    </output>

    <time>
        <begin value="0"/>
    </time>

    <report>
        <verbose value="true"/>
        <duration-log.statistics value="true"/>
        <no-step-log value="true"/>
    </report>

    <traci_server>
        <remote-port value="55250"/>
    </traci_server>

</configuration>
-->

<tripinfos xmlns:xsi="http://www.w3.org/2001/XMLSchema-instance" xsi:noNamespaceSchemaLocation="http://sumo.dlr.de/xsd/tripinfo_file.xsd">
    <tripinfo id="up_0" depart="1.00" departLane="53o_0" departPos="5.10" departSpeed="0.00" departDelay="0.00" arrival="92.00" arrivalLane="54i_0" arrivalPos="10.00" arrivalSpeed="11.13" duration="91.00" routeLength="1015.10" waitSteps="0" timeLoss="14.86" rerouteNo="0" devices="tripinfo_up_0" vType="typeNS" speedFactor="1.00" vaporized=""/>
    <tripinfo id="up_1" depart="14.00" departLane="53o_0" departPos="5.10" departSpeed="0.00" departDelay="0.00" arrival="105.00" arrivalLane="54i_0" arrivalPos="10.00" arrivalSpeed="11.39" duration="91.00" routeLength="1015.10" waitSteps="0" timeLoss="14.94" rerouteNo="0" devices="tripinfo_up_1" vType="typeNS" speedFactor="1.00" vaporized=""/>
    <tripinfo id="right_4" depart="17.00" departLane="51o_0" departPos="5.10" departSpeed="0.00" departDelay="0.00" arrival="109.00" arrivalLane="52i_0" arrivalPos="10.00" arrivalSpeed="11.44" duration="92.00" routeLength="1015.10" waitSteps="0" timeLoss="15.67" rerouteNo="0" devices="tripinfo_right_4" vType="typeWE" speedFactor="1.00" vaporized=""/>
    <tripinfo id="left_6" depart="19.00" departLane="52o_0" departPos="5.10" departSpeed="0.00" departDelay="0.00" arrival="110.00" arrivalLane="51i_0" arrivalPos="10.00" arrivalSpeed="11.38" duration="91.00" routeLength="1015.10" waitSteps="0" timeLoss="14.71" rerouteNo="0" devices="tripinfo_left_6" vType="typeWE" speedFactor="1.00" vaporized=""/>
    <tripinfo id="right_9" depart="22.00" departLane="51o_0" departPos="5.10" departSpeed="0.00" departDelay="1.00" arrival="113.00" arrivalLane="52i_0" arrivalPos="10.00" arrivalSpeed="11.53" duration="91.00" routeLength="1015.10" waitSteps="0" timeLoss="14.84" rerouteNo="0" devices="tripinfo_right_9" vType="typeWE" speedFactor="1.00" vaporized=""/>
    <tripinfo id="right_11" depart="27.00" departLane="51o_0" departPos="5.10" departSpeed="0.00" departDelay="3.00" arrival="120.00" arrivalLane="52i_0" arrivalPos="10.00" arrivalSpeed="11.52" duration="93.00" routeLength="1015.10" waitSteps="0" timeLoss="16.41" rerouteNo="0" devices="tripinfo_right_11" vType="typeWE" speedFactor="1.00" vaporized=""/>
    <tripinfo id="left_14" depart="29.00" departLane="52o_0" departPos="5.10" departSpeed="0.00" departDelay="0.00" arrival="120.00" arrivalLane="51i_0" arrivalPos="10.00" arrivalSpeed="11.44" duration="91.00" routeLength="1015.10" waitSteps="0" timeLoss="14.63" rerouteNo="0" devices="tripinfo_left_14" vType="typeWE" speedFactor="1.00" vaporized=""/>
    <tripinfo id="right_15" depart="32.00" departLane="51o_0" departPos="5.10" departSpeed="0.00" departDelay="1.00" arrival="123.00" arrivalLane="52i_0" arrivalPos="10.00" arrivalSpeed="11.18" duration="91.00" routeLength="1015.10" waitSteps="0" timeLoss="14.75" rerouteNo="0" devices="tripinfo_right_15" vType="typeWE" speedFactor="1.00" vaporized=""/>
    <tripinfo id="left_18" depart="34.00" departLane="52o_0" departPos="5.10" departSpeed="0.00" departDelay="0.00" arrival="125.00" arrivalLane="51i_0" arrivalPos="10.00" arrivalSpeed="11.57" duration="91.00" routeLength="1015.10" waitSteps="0" timeLoss="14.80" rerouteNo="0" devices="tripinfo_left_18" vType="typeWE" speedFactor="1.00" vaporized=""/>
    <tripinfo id="right_17" depart="37.00" departLane="51o_0" departPos="5.10" departSpeed="0.00" departDelay="4.00" arrival="129.00" arrivalLane="52i_0" arrivalPos="10.00" arrivalSpeed="11.06" duration="92.00" routeLength="1015.10" waitSteps="0" timeLoss="15.79" rerouteNo="0" devices="tripinfo_right_17" vType="typeWE" speedFactor="1.00" vaporized=""/>
    <tripinfo id="left_19" depart="39.00" departLane="52o_0" departPos="5.10" departSpeed="0.00" departDelay="3.00" arrival="131.00" arrivalLane="51i_0" arrivalPos="10.00" arrivalSpeed="11.77" duration="92.00" routeLength="1015.10" waitSteps="0" timeLoss="15.29" rerouteNo="0" devices="tripinfo_left_19" vType="typeWE" speedFactor="1.00" vaporized=""/>
    <tripinfo id="right_23" depart="45.00" departLane="51o_0" departPos="5.10" departSpeed="0.00" departDelay="0.00" arrival="136.00" arrivalLane="52i_0" arrivalPos="10.00" arrivalSpeed="10.88" duration="91.00" routeLength="1015.10" waitSteps="0" timeLoss="14.85" rerouteNo="0" devices="tripinfo_right_23" vType="typeWE" speedFactor="1.00" vaporized=""/>
    <tripinfo id="left_22" depart="45.00" departLane="52o_0" departPos="5.10" departSpeed="0.00" departDelay="2.00" arrival="137.00" arrivalLane="51i_0" arrivalPos="10.00" arrivalSpeed="11.10" duration="92.00" routeLength="1015.10" waitSteps="0" timeLoss="15.79" rerouteNo="0" devices="tripinfo_left_22" vType="typeWE" speedFactor="1.00" vaporized=""/>
    <tripinfo id="right_28" depart="74.00" departLane="51o_0" departPos="5.10" departSpeed="0.00" departDelay="0.00" arrival="165.00" arrivalLane="52i_0" arrivalPos="10.00" arrivalSpeed="11.43" duration="91.00" routeLength="1015.10" waitSteps="0" timeLoss="14.74" rerouteNo="0" devices="tripinfo_right_28" vType="typeWE" speedFactor="1.00" vaporized=""/>
    <tripinfo id="left_29" depart="74.00" departLane="52o_0" departPos="5.10" departSpeed="0.00" departDelay="0.00" arrival="166.00" arrivalLane="51i_0" arrivalPos="10.00" arrivalSpeed="11.66" duration="92.00" routeLength="1015.10" waitSteps="0" timeLoss="15.58" rerouteNo="0" devices="tripinfo_left_29" vType="typeWE" speedFactor="1.00" vaporized=""/>
    <tripinfo id="up_2" depart="19.00" departLane="53o_0" departPos="5.10" departSpeed="0.00" departDelay="4.00" arrival="176.00" arrivalLane="54i_0" arrivalPos="10.00" arrivalSpeed="11.54" duration="157.00" routeLength="1015.10" waitSteps="56" timeLoss="80.78" rerouteNo="0" devices="tripinfo_up_2" vType="typeNS" speedFactor="1.00" vaporized=""/>
    <tripinfo id="down_5" depart="17.00" departLane="54o_0" departPos="5.10" departSpeed="0.00" departDelay="0.00" arrival="177.00" arrivalLane="53i_0" arrivalPos="10.00" arrivalSpeed="11.49" duration="160.00" routeLength="1015.10" waitSteps="60" timeLoss="83.53" rerouteNo="0" devices="tripinfo_down_5" vType="typeNS" speedFactor="1.00" vaporized=""/>
    <tripinfo id="up_3" depart="24.00" departLane="53o_0" departPos="5.10" departSpeed="0.00" departDelay="8.00" arrival="178.00" arrivalLane="54i_0" arrivalPos="10.00" arrivalSpeed="11.59" duration="154.00" routeLength="1015.10" waitSteps="52" timeLoss="78.05" rerouteNo="0" devices="tripinfo_up_3" vType="typeNS" speedFactor="1.00" vaporized=""/>
    <tripinfo id="down_7" depart="22.00" departLane="54o_0" departPos="5.10" departSpeed="0.00" departDelay="3.00" arrival="179.00" arrivalLane="53i_0" arrivalPos="10.00" arrivalSpeed="11.87" duration="157.00" routeLength="1015.10" waitSteps="53" timeLoss="80.75" rerouteNo="0" devices="tripinfo_down_7" vType="typeNS" speedFactor="1.00" vaporized=""/>
    <tripinfo id="up_21" depart="41.00" departLane="53o_0" departPos="5.10" departSpeed="0.00" departDelay="0.00" arrival="180.00" arrivalLane="54i_0" arrivalPos="10.00" arrivalSpeed="11.54" duration="139.00" routeLength="1015.10" waitSteps="36" timeLoss="63.14" rerouteNo="0" devices="tripinfo_up_21" vType="typeNS" speedFactor="1.00" vaporized=""/>
    <tripinfo id="down_8" depart="27.00" departLane="54o_0" departPos="5.10" departSpeed="0.00" departDelay="7.00" arrival="181.00" arrivalLane="53i_0" arrivalPos="10.00" arrivalSpeed="11.60" duration="154.00" routeLength="1015.10" waitSteps="50" timeLoss="77.93" rerouteNo="0" devices="tripinfo_down_8" vType="typeNS" speedFactor="1.00" vaporized=""/>
    <tripinfo id="up_27" depart="71.00" departLane="53o_0" departPos="5.10" departSpeed="0.00" departDelay="0.00" arrival="182.00" arrivalLane="54i_0" arrivalPos="10.00" arrivalSpeed="11.32" duration="111.00" routeLength="1015.10" waitSteps="7" timeLoss="34.97" rerouteNo="0" devices="tripinfo_up_27" vType="typeNS" speedFactor="1.00" vaporized=""/>
    <tripinfo id="down_10" depart="32.00" departLane="54o_0" departPos="5.10" departSpeed="0.00" departDelay="11.00" arrival="183.00" arrivalLane="53i_0" arrivalPos="10.00" arrivalSpeed="11.25" duration="151.00" routeLength="1015.10" waitSteps="47" timeLoss="74.73" rerouteNo="0" devices="tripinfo_down_10" vType="typeNS" speedFactor="1.00" vaporized=""/>
    <tripinfo id="down_12" depart="37.00" departLane="54o_0" departPos="5.10" departSpeed="0.00" departDelay="12.00" arrival="185.00" arrivalLane="53i_0" arrivalPos="10.00" arrivalSpeed="11.41" duration="148.00" routeLength="1015.10" waitSteps="42" timeLoss="71.87" rerouteNo="0" devices="tripinfo_down_12" vType="typeNS" speedFactor="1.00" vaporized=""/>
    <tripinfo id="up_31" depart="76.00" departLane="53o_0" departPos="5.10" departSpeed="0.00" departDelay="0.00" arrival="185.00" arrivalLane="54i_0" arrivalPos="10.00" arrivalSpeed="11.61" duration="109.00" routeLength="1015.10" waitSteps="4" timeLoss="32.35" rerouteNo="0" devices="tripinfo_up_31" vType="typeNS" speedFactor="1.00" vaporized=""/>
    <tripinfo id="down_13" depart="42.00" departLane="54o_0" departPos="5.10" departSpeed="0.00" departDelay="15.00" arrival="187.00" arrivalLane="53i_0" arrivalPos="10.00" arrivalSpeed="11.67" duration="145.00" routeLength="1015.10" waitSteps="39" timeLoss="68.59" rerouteNo="0" devices="tripinfo_down_13" vType="typeNS" speedFactor="1.00" vaporized=""/>
    <tripinfo id="up_32" depart="81.00" departLane="53o_0" departPos="5.10" departSpeed="0.00" departDelay="4.00" arrival="187.00" arrivalLane="54i_0" arrivalPos="10.00" arrivalSpeed="11.60" duration="106.00" routeLength="1015.10" waitSteps="0" timeLoss="29.27" rerouteNo="0" devices="tripinfo_up_32" vType="typeNS" speedFactor="1.00" vaporized=""/>
    <tripinfo id="down_16" depart="47.00" departLane="54o_0" departPos="5.10" departSpeed="0.00" departDelay="15.00" arrival="189.00" arrivalLane="53i_0" arrivalPos="10.00" arrivalSpeed="11.57" duration="142.00" routeLength="1015.10" waitSteps="34" timeLoss="65.36" rerouteNo="0" devices="tripinfo_down_16" vType="typeNS" speedFactor="1.00" vaporized=""/>
    <tripinfo id="up_38" depart="97.00" departLane="53o_0" departPos="5.10" departSpeed="0.00" departDelay="0.00" arrival="189.00" arrivalLane="54i_0" arrivalPos="10.00" arrivalSpeed="11.68" duration="92.00" routeLength="1015.10" waitSteps="0" timeLoss="15.25" rerouteNo="0" devices="tripinfo_up_38" vType="typeNS" speedFactor="1.00" vaporized=""/>
    <tripinfo id="down_20" depart="53.00" departLane="54o_0" departPos="5.10" departSpeed="0.00" departDelay="13.00" arrival="190.00" arrivalLane="53i_0" arrivalPos="10.00" arrivalSpeed="11.60" duration="137.00" routeLength="1015.10" waitSteps="32" timeLoss="61.01" rerouteNo="0" devices="tripinfo_down_20" vType="typeNS" speedFactor="1.00" vaporized=""/>
    <tripinfo id="down_24" depart="58.00" departLane="54o_0" departPos="5.10" departSpeed="0.00" departDelay="8.00" arrival="192.00" arrivalLane="53i_0" arrivalPos="10.00" arrivalSpeed="11.66" duration="134.00" routeLength="1015.10" waitSteps="30" timeLoss="57.80" rerouteNo="0" devices="tripinfo_down_24" vType="typeNS" speedFactor="1.00" vaporized=""/>
    <tripinfo id="down_25" depart="63.00" departLane="54o_0" departPos="5.10" departSpeed="0.00" departDelay="11.00" arrival="194.00" arrivalLane="53i_0" arrivalPos="10.00" arrivalSpeed="11.40" duration="131.00" routeLength="1015.10" waitSteps="25" timeLoss="54.64" rerouteNo="0" devices="tripinfo_down_25" vType="typeNS" speedFactor="1.00" vaporized=""/>
    <tripinfo id="up_41" depart="104.00" departLane="53o_0" departPos="5.10" departSpeed="0.00" departDelay="0.00" arrival="194.00" arrivalLane="54i_0" arrivalPos="10.00" arrivalSpeed="11.53" duration="90.00" routeLength="1015.10" waitSteps="0" timeLoss="13.95" rerouteNo="0" devices="tripinfo_up_41" vType="typeNS" speedFactor="1.00" vaporized=""/>
    <tripinfo id="down_26" depart="68.00" departLane="54o_0" departPos="5.10" departSpeed="0.00" departDelay="15.00" arrival="196.00" arrivalLane="53i_0" arrivalPos="10.00" arrivalSpeed="11.69" duration="128.00" routeLength="1015.10" waitSteps="21" timeLoss="51.76" rerouteNo="0" devices="tripinfo_down_26" vType="typeNS" speedFactor="1.00" vaporized=""/>
    <tripinfo id="down_33" depart="85.00" departLane="54o_0" departPos="5.10" departSpeed="0.00" departDelay="0.00" arrival="198.00" arrivalLane="53i_0" arrivalPos="10.00" arrivalSpeed="11.54" duration="113.00" routeLength="1015.10" waitSteps="6" timeLoss="36.37" rerouteNo="0" devices="tripinfo_down_33" vType="typeNS" speedFactor="1.00" vaporized=""/>
    <tripinfo id="down_37" depart="94.00" departLane="54o_0" departPos="5.10" departSpeed="0.00" departDelay="0.00" arrival="200.00" arrivalLane="53i_0" arrivalPos="10.00" arrivalSpeed="11.42" duration="106.00" routeLength="1015.10" waitSteps="0" timeLoss="29.28" rerouteNo="0" devices="tripinfo_down_37" vType="typeNS" speedFactor="1.00" vaporized=""/>
    <tripinfo id="down_43" depart="107.00" departLane="54o_0" departPos="5.10" departSpeed="0.00" departDelay="0.00" arrival="201.00" arrivalLane="53i_0" arrivalPos="10.00" arrivalSpeed="11.28" duration="94.00" routeLength="1015.10" waitSteps="0" timeLoss="18.07" rerouteNo="0" devices="tripinfo_down_43" vType="typeNS" speedFactor="1.00" vaporized=""/>
    <tripinfo id="up_42" depart="109.00" departLane="53o_0" departPos="5.10" departSpeed="0.00" departDelay="4.00" arrival="201.00" arrivalLane="54i_0" arrivalPos="10.00" arrivalSpeed="11.52" duration="92.00" routeLength="1015.10" waitSteps="0" timeLoss="15.73" rerouteNo="0" devices="tripinfo_up_42" vType="typeNS" speedFactor="1.00" vaporized=""/>
    <tripinfo id="down_44" depart="112.00" departLane="54o_0" departPos="5.10" departSpeed="0.00" departDelay="3.00" arrival="203.00" arrivalLane="53i_0" arrivalPos="10.00" arrivalSpeed="10.75" duration="91.00" routeLength="1015.10" waitSteps="0" timeLoss="14.82" rerouteNo="0" devices="tripinfo_down_44" vType="typeNS" speedFactor="1.00" vaporized=""/>
    <tripinfo id="up_46" depart="117.00" departLane="53o_0" departPos="5.10" departSpeed="0.00" departDelay="0.00" arrival="208.00" arrivalLane="54i_0" arrivalPos="10.00" arrivalSpeed="11.52" duration="91.00" routeLength="1015.10" waitSteps="0" timeLoss="14.84" rerouteNo="0" devices="tripinfo_up_46" vType="typeNS" speedFactor="1.00" vaporized=""/>
    <tripinfo id="down_47" depart="119.00" departLane="54o_0" departPos="5.10" departSpeed="0.00" departDelay="0.00" arrival="210.00" arrivalLane="53i_0" arrivalPos="10.00" arrivalSpeed="11.19" duration="91.00" routeLength="1015.10" waitSteps="0" timeLoss="14.85" rerouteNo="0" devices="tripinfo_down_47" vType="typeNS" speedFactor="1.00" vaporized=""/>
    <tripinfo id="up_50" depart="128.00" departLane="53o_0" departPos="5.10" departSpeed="0.00" departDelay="0.00" arrival="221.00" arrivalLane="54i_0" arrivalPos="10.00" arrivalSpeed="11.54" duration="93.00" routeLength="1015.10" waitSteps="0" timeLoss="16.75" rerouteNo="0" devices="tripinfo_up_50" vType="typeNS" speedFactor="1.00" vaporized=""/>
    <tripinfo id="right_34" depart="86.00" departLane="51o_0" departPos="5.10" departSpeed="0.00" departDelay="0.00" arrival="236.00" arrivalLane="52i_0" arrivalPos="10.00" arrivalSpeed="11.54" duration="150.00" routeLength="1015.10" waitSteps="48" timeLoss="74.19" rerouteNo="0" devices="tripinfo_right_34" vType="typeWE" speedFactor="1.00" vaporized=""/>
    <tripinfo id="left_30" depart="79.00" departLane="52o_0" departPos="5.10" departSpeed="0.00" departDelay="3.00" arrival="236.00" arrivalLane="51i_0" arrivalPos="10.00" arrivalSpeed="11.48" duration="157.00" routeLength="1015.10" waitSteps="54" timeLoss="81.06" rerouteNo="0" devices="tripinfo_left_30" vType="typeWE" speedFactor="1.00" vaporized=""/>
    <tripinfo id="right_35" depart="91.00" departLane="51o_0" departPos="5.10" departSpeed="0.00" departDelay="4.00" arrival="238.00" arrivalLane="52i_0" arrivalPos="10.00" arrivalSpeed="11.42" duration="147.00" routeLength="1015.10" waitSteps="45" timeLoss="71.11" rerouteNo="0" devices="tripinfo_right_35" vType="typeWE" speedFactor="1.00" vaporized=""/>
    <tripinfo id="left_36" depart="94.00" departLane="52o_0" departPos="5.10" departSpeed="0.00" departDelay="0.00" arrival="239.00" arrivalLane="51i_0" arrivalPos="10.00" arrivalSpeed="11.46" duration="145.00" routeLength="1015.10" waitSteps="43" timeLoss="68.44" rerouteNo="0" devices="tripinfo_left_36" vType="typeWE" speedFactor="1.00" vaporized=""/>
    <tripinfo id="right_45" depart="115.00" departLane="51o_0" departPos="5.10" departSpeed="0.00" departDelay="0.00" arrival="240.00" arrivalLane="52i_0" arrivalPos="10.00" arrivalSpeed="11.55" duration="125.00" routeLength="1015.10" waitSteps="22" timeLoss="48.97" rerouteNo="0" devices="tripinfo_right_45" vType="typeWE" speedFactor="1.00" vaporized=""/>
    <tripinfo id="left_39" depart="99.00" departLane="52o_0" departPos="5.10" departSpeed="0.00" departDelay="0.00" arrival="241.00" arrivalLane="51i_0" arrivalPos="10.00" arrivalSpeed="11.78" duration="142.00" routeLength="1015.10" waitSteps="37" timeLoss="65.58" rerouteNo="0" devices="tripinfo_left_39" vType="typeWE" speedFactor="1.00" vaporized=""/>
    <tripinfo id="right_48" depart="120.00" departLane="51o_0" departPos="5.10" departSpeed="0.00" departDelay="0.00" arrival="242.00" arrivalLane="52i_0" arrivalPos="10.00" arrivalSpeed="11.64" duration="122.00" routeLength="1015.10" waitSteps="21" timeLoss="46.15" rerouteNo="0" devices="tripinfo_right_48" vType="typeWE" speedFactor="1.00" vaporized=""/>
    <tripinfo id="left_40" depart="104.00" departLane="52o_0" departPos="5.10" departSpeed="0.00" departDelay="2.00" arrival="243.00" arrivalLane="51i_0" arrivalPos="10.00" arrivalSpeed="11.36" duration="139.00" routeLength="1015.10" waitSteps="33" timeLoss="62.34" rerouteNo="0" devices="tripinfo_left_40" vType="typeWE" speedFactor="1.00" vaporized=""/>
    <tripinfo id="right_49" depart="126.00" departLane="51o_0" departPos="5.10" departSpeed="0.00" departDelay="0.00" arrival="245.00" arrivalLane="52i_0" arrivalPos="10.00" arrivalSpeed="11.39" duration="119.00" routeLength="1015.10" waitSteps="13" timeLoss="42.74" rerouteNo="0" devices="tripinfo_right_49" vType="typeWE" speedFactor="1.00" vaporized=""/>
    <tripinfo id="left_54" depart="159.00" departLane="52o_0" departPos="5.10" departSpeed="0.00" departDelay="0.00" arrival="250.00" arrivalLane="51i_0" arrivalPos="10.00" arrivalSpeed="11.45" duration="91.00" routeLength="1015.10" waitSteps="0" timeLoss="14.72" rerouteNo="0" devices="tripinfo_left_54" vType="typeWE" speedFactor="1.00" vaporized=""/>
    <tripinfo id="right_59" depart="166.00" departLane="51o_0" departPos="5.10" departSpeed="0.00" departDelay="0.00" arrival="257.00" arrivalLane="52i_0" arrivalPos="10.00" arrivalSpeed="11.49" duration="91.00" routeLength="1015.10" waitSteps="0" timeLoss="14.66" rerouteNo="0" devices="tripinfo_right_59" vType="typeWE" speedFactor="1.00" vaporized=""/>
    <tripinfo id="left_61" depart="171.00" departLane="52o_0" departPos="5.10" departSpeed="0.00" departDelay="0.00" arrival="262.00" arrivalLane="51i_0" arrivalPos="10.00" arrivalSpeed="11.74" duration="91.00" routeLength="1015.10" waitSteps="0" timeLoss="14.16" rerouteNo="0" devices="tripinfo_left_61" vType="typeWE" speedFactor="1.00" vaporized=""/>
    <tripinfo id="left_62" depart="176.00" departLane="52o_0" departPos="5.10" departSpeed="0.00" departDelay="3.00" arrival="267.00" arrivalLane="51i_0" arrivalPos="10.00" arrivalSpeed="11.45" duration="91.00" routeLength="1015.10" waitSteps="0" timeLoss="14.63" rerouteNo="0" devices="tripinfo_left_62" vType="typeWE" speedFactor="1.00" vaporized=""/>
    <tripinfo id="left_64" depart="181.00" departLane="52o_0" departPos="5.10" departSpeed="0.00" departDelay="6.00" arrival="272.00" arrivalLane="51i_0" arrivalPos="10.00" arrivalSpeed="11.71" duration="91.00" routeLength="1015.10" waitSteps="0" timeLoss="14.32" rerouteNo="0" devices="tripinfo_left_64" vType="typeWE" speedFactor="1.00" vaporized=""/>
    <tripinfo id="right_65" depart="187.00" departLane="51o_0" departPos="5.10" departSpeed="0.00" departDelay="0.00" arrival="278.00" arrivalLane="52i_0" arrivalPos="10.00" arrivalSpeed="11.70" duration="91.00" routeLength="1015.10" waitSteps="0" timeLoss="14.70" rerouteNo="0" devices="tripinfo_right_65" vType="typeWE" speedFactor="1.00" vaporized=""/>
    <tripinfo id="right_67" depart="192.00" departLane="51o_0" departPos="5.10" departSpeed="0.00" departDelay="3.00" arrival="284.00" arrivalLane="52i_0" arrivalPos="10.00" arrivalSpeed="11.83" duration="92.00" routeLength="1015.10" waitSteps="0" timeLoss="15.71" rerouteNo="0" devices="tripinfo_right_67" vType="typeWE" speedFactor="1.00" vaporized=""/>
    <tripinfo id="left_68" depart="193.00" departLane="52o_0" departPos="5.10" departSpeed="0.00" departDelay="0.00" arrival="284.00" arrivalLane="51i_0" arrivalPos="10.00" arrivalSpeed="11.54" duration="91.00" routeLength="1015.10" waitSteps="0" timeLoss="14.87" rerouteNo="0" devices="tripinfo_left_68" vType="typeWE" speedFactor="1.00" vaporized=""/>
    <tripinfo id="down_51" depart="138.00" departLane="54o_0" departPos="5.10" departSpeed="0.00" departDelay="0.00" arrival="296.00" arrivalLane="53i_0" arrivalPos="10.00" arrivalSpeed="11.48" duration="158.00" routeLength="1015.10" waitSteps="56" timeLoss="82.17" rerouteNo="0" devices="tripinfo_down_51" vType="typeNS" speedFactor="1.00" vaporized=""/>
    <tripinfo id="up_52" depart="151.00" departLane="53o_0" departPos="5.10" departSpeed="0.00" departDelay="0.00" arrival="297.00" arrivalLane="54i_0" arrivalPos="10.00" arrivalSpeed="10.77" duration="146.00" routeLength="1015.10" waitSteps="42" timeLoss="70.05" rerouteNo="0" devices="tripinfo_up_52" vType="typeNS" speedFactor="1.00" vaporized=""/>
    <tripinfo id="up_53" depart="156.00" departLane="53o_0" departPos="5.10" departSpeed="0.00" departDelay="1.00" arrival="299.00" arrivalLane="54i_0" arrivalPos="10.00" arrivalSpeed="11.61" duration="143.00" routeLength="1015.10" waitSteps="39" timeLoss="67.02" rerouteNo="0" devices="tripinfo_up_53" vType="typeNS" speedFactor="1.00" vaporized=""/>
    <tripinfo id="down_55" depart="159.00" departLane="54o_0" departPos="5.10" departSpeed="0.00" departDelay="0.00" arrival="299.00" arrivalLane="53i_0" arrivalPos="10.00" arrivalSpeed="11.80" duration="140.00" routeLength="1015.10" waitSteps="35" timeLoss="63.65" rerouteNo="0" devices="tripinfo_down_55" vType="typeNS" speedFactor="1.00" vaporized=""/>
    <tripinfo id="up_57" depart="162.00" departLane="53o_0" departPos="5.10" departSpeed="0.00" departDelay="0.00" arrival="301.00" arrivalLane="54i_0" arrivalPos="10.00" arrivalSpeed="11.07" duration="139.00" routeLength="1015.10" waitSteps="34" timeLoss="63.10" rerouteNo="0" devices="tripinfo_up_57" vType="typeNS" speedFactor="1.00" vaporized=""/>
    <tripinfo id="down_56" depart="164.00" departLane="54o_0" departPos="5.10" departSpeed="0.00" departDelay="4.00" arrival="301.00" arrivalLane="53i_0" arrivalPos="10.00" arrivalSpeed="11.78" duration="137.00" routeLength="1015.10" waitSteps="33" timeLoss="61.22" rerouteNo="0" devices="tripinfo_down_56" vType="typeNS" speedFactor="1.00" vaporized=""/>
    <tripinfo id="up_77" depart="206.00" departLane="53o_0" departPos="5.10" departSpeed="0.00" departDelay="0.00" arrival="303.00" arrivalLane="54i_0" arrivalPos="10.00" arrivalSpeed="11.48" duration="97.00" routeLength="1015.10" waitSteps="0" timeLoss="21.14" rerouteNo="0" devices="tripinfo_up_77" vType="typeNS" speedFactor="1.00" vaporized=""/>
    <tripinfo id="down_58" depart="169.00" departLane="54o_0" departPos="5.10" departSpeed="0.00" departDelay="5.00" arrival="303.00" arrivalLane="53i_0" arrivalPos="10.00" arrivalSpeed="11.62" duration="134.00" routeLength="1015.10" waitSteps="30" timeLoss="57.95" rerouteNo="0" devices="tripinfo_down_58" vType="typeNS" speedFactor="1.00" vaporized=""/>
    <tripinfo id="up_78" depart="211.00" departLane="53o_0" departPos="5.10" departSpeed="0.00" departDelay="4.00" arrival="305.00" arrivalLane="54i_0" arrivalPos="10.00" arrivalSpeed="11.70" duration="94.00" routeLength="1015.10" waitSteps="0" timeLoss="17.82" rerouteNo="0" devices="tripinfo_up_78" vType="typeNS" speedFactor="1.00" vaporized=""/>
    <tripinfo id="down_60" depart="176.00" departLane="54o_0" departPos="5.10" departSpeed="0.00" departDelay="8.00" arrival="305.00" arrivalLane="53i_0" arrivalPos="10.00" arrivalSpeed="11.26" duration="129.00" routeLength="1015.10" waitSteps="24" timeLoss="53.14" rerouteNo="0" devices="tripinfo_down_60" vType="typeNS" speedFactor="1.00" vaporized=""/>
    <tripinfo id="down_63" depart="182.00" departLane="54o_0" departPos="5.10" departSpeed="0.00" departDelay="8.00" arrival="307.00" arrivalLane="53i_0" arrivalPos="10.00" arrivalSpeed="11.49" duration="125.00" routeLength="1015.10" waitSteps="19" timeLoss="49.00" rerouteNo="0" devices="tripinfo_down_63" vType="typeNS" speedFactor="1.00" vaporized=""/>
    <tripinfo id="up_82" depart="217.00" departLane="53o_0" departPos="5.10" departSpeed="0.00" departDelay="0.00" arrival="309.00" arrivalLane="54i_0" arrivalPos="10.00" arrivalSpeed="11.36" duration="92.00" routeLength="1015.10" waitSteps="0" timeLoss="15.30" rerouteNo="0" devices="tripinfo_up_82" vType="typeNS" speedFactor="1.00" vaporized=""/>
    <tripinfo id="down_66" depart="189.00" departLane="54o_0" departPos="5.10" departSpeed="0.00" departDelay="1.00" arrival="309.00" arrivalLane="53i_0" arrivalPos="10.00" arrivalSpeed="11.71" duration="120.00" routeLength="1015.10" waitSteps="15" timeLoss="43.92" rerouteNo="0" devices="tripinfo_down_66" vType="typeNS" speedFactor="1.00" vaporized=""/>
    <tripinfo id="down_74" depart="202.00" departLane="54o_0" departPos="5.10" departSpeed="0.00" departDelay="0.00" arrival="312.00" arrivalLane="53i_0" arrivalPos="10.00" arrivalSpeed="11.29" duration="110.00" routeLength="1015.10" waitSteps="4" timeLoss="33.75" rerouteNo="0" devices="tripinfo_down_74" vType="typeNS" speedFactor="1.00" vaporized=""/>
    <tripinfo id="down_83" depart="221.00" departLane="54o_0" departPos="5.10" departSpeed="0.00" departDelay="2.00" arrival="314.00" arrivalLane="53i_0" arrivalPos="10.00" arrivalSpeed="11.32" duration="93.00" routeLength="1015.10" waitSteps="0" timeLoss="16.54" rerouteNo="0" devices="tripinfo_down_83" vType="typeNS" speedFactor="1.00" vaporized=""/>
    <tripinfo id="up_85" depart="229.00" departLane="53o_0" departPos="5.10" departSpeed="0.00" departDelay="0.00" arrival="319.00" arrivalLane="54i_0" arrivalPos="10.00" arrivalSpeed="11.72" duration="90.00" routeLength="1015.10" waitSteps="0" timeLoss="13.97" rerouteNo="0" devices="tripinfo_up_85" vType="typeNS" speedFactor="1.00" vaporized=""/>
    <tripinfo id="up_87" depart="234.00" departLane="53o_0" departPos="5.10" departSpeed="0.00" departDelay="1.00" arrival="326.00" arrivalLane="54i_0" arrivalPos="10.00" arrivalSpeed="11.89" duration="92.00" routeLength="1015.10" waitSteps="0" timeLoss="15.27" rerouteNo="0" devices="tripinfo_up_87" vType="typeNS" speedFactor="1.00" vaporized=""/>
    <tripinfo id="up_88" depart="239.00" departLane="53o_0" departPos="5.10" departSpeed="0.00" departDelay="3.00" arrival="331.00" arrivalLane="54i_0" arrivalPos="10.00" arrivalSpeed="11.59" duration="92.00" routeLength="1015.10" waitSteps="0" timeLoss="15.76" rerouteNo="0" devices="tripinfo_up_88" vType="typeNS" speedFactor="1.00" vaporized=""/>
    <tripinfo id="down_90" depart="240.00" departLane="54o_0" departPos="5.10" departSpeed="0.00" departDelay="0.00" arrival="331.00" arrivalLane="53i_0" arrivalPos="10.00" arrivalSpeed="11.69" duration="91.00" routeLength="1015.10" waitSteps="0" timeLoss="14.98" rerouteNo="0" devices="tripinfo_down_90" vType="typeNS" speedFactor="1.00" vaporized=""/>
    <tripinfo id="down_92" depart="248.00" departLane="54o_0" departPos="5.10" departSpeed="0.00" departDelay="0.00" arrival="339.00" arrivalLane="53i_0" arrivalPos="10.00" arrivalSpeed="11.40" duration="91.00" routeLength="1015.10" waitSteps="0" timeLoss="14.86" rerouteNo="0" devices="tripinfo_down_92" vType="typeNS" speedFactor="1.00" vaporized=""/>
    <tripinfo id="up_93" depart="252.00" departLane="53o_0" departPos="5.10" departSpeed="0.00" departDelay="0.00" arrival="344.00" arrivalLane="54i_0" arrivalPos="10.00" arrivalSpeed="11.41" duration="92.00" routeLength="1015.10" waitSteps="0" timeLoss="15.86" rerouteNo="0" devices="tripinfo_up_93" vType="typeNS" speedFactor="1.00" vaporized=""/>
    <tripinfo id="down_95" depart="256.00" departLane="54o_0" departPos="5.10" departSpeed="0.00" departDelay="0.00" arrival="347.00" arrivalLane="53i_0" arrivalPos="10.00" arrivalSpeed="11.59" duration="91.00" routeLength="1015.10" waitSteps="0" timeLoss="15.07" rerouteNo="0" devices="tripinfo_down_95" vType="typeNS" speedFactor="1.00" vaporized=""/>