<?xml version="1.0" encoding="UTF-8"?>

<!-- generated on Mon Apr 30 16:17:05 2018 by SUMO Version 0.32.0
<?xml version="1.0" encoding="UTF-8"?>

<configuration xmlns:xsi="http://www.w3.org/2001/XMLSchema-instance" xsi:noNamespaceSchemaLocation="http://sumo.dlr.de/xsd/sumoConfiguration.xsd">

    <input>
        <net-file value="data/cross.net.xml"/>
        <route-files value="data/cross.rou.xml"/>
        <additional-files value="data/cross.det.xml"/>
    </input>

    <output>
        <summary-output value="data/cross.out"/>
        <tripinfo-output value="output/tripinfo158.xml"/>
    </output>

    <time>
        <begin value="0"/>
    </time>

    <report>
        <verbose value="true"/>
        <duration-log.statistics value="true"/>
        <no-step-log value="true"/>
    </report>

    <traci_server>
        <remote-port value="52302"/>
    </traci_server>

</configuration>
-->

<tripinfos xmlns:xsi="http://www.w3.org/2001/XMLSchema-instance" xsi:noNamespaceSchemaLocation="http://sumo.dlr.de/xsd/tripinfo_file.xsd">
    <tripinfo id="left_0" depart="0.00" departLane="52o_0" departPos="5.10" departSpeed="0.00" departDelay="0.00" arrival="92.00" arrivalLane="51i_0" arrivalPos="10.00" arrivalSpeed="11.44" duration="92.00" routeLength="1015.10" waitSteps="0" timeLoss="15.27" rerouteNo="0" devices="tripinfo_left_0" vType="typeWE" speedFactor="1.00" vaporized=""/>
    <tripinfo id="up_1" depart="7.00" departLane="53o_0" departPos="5.10" departSpeed="0.00" departDelay="0.00" arrival="98.00" arrivalLane="54i_0" arrivalPos="10.00" arrivalSpeed="11.32" duration="91.00" routeLength="1015.10" waitSteps="0" timeLoss="14.51" rerouteNo="0" devices="tripinfo_up_1" vType="typeNS" speedFactor="1.00" vaporized=""/>
    <tripinfo id="down_2" depart="9.00" departLane="54o_0" departPos="5.10" departSpeed="0.00" departDelay="0.00" arrival="100.00" arrivalLane="53i_0" arrivalPos="10.00" arrivalSpeed="11.53" duration="91.00" routeLength="1015.10" waitSteps="0" timeLoss="14.21" rerouteNo="0" devices="tripinfo_down_2" vType="typeNS" speedFactor="1.00" vaporized=""/>
    <tripinfo id="left_3" depart="16.00" departLane="52o_0" departPos="5.10" departSpeed="0.00" departDelay="0.00" arrival="107.00" arrivalLane="51i_0" arrivalPos="10.00" arrivalSpeed="11.53" duration="91.00" routeLength="1015.10" waitSteps="0" timeLoss="14.69" rerouteNo="0" devices="tripinfo_left_3" vType="typeWE" speedFactor="1.00" vaporized=""/>
    <tripinfo id="left_5" depart="21.00" departLane="52o_0" departPos="5.10" departSpeed="0.00" departDelay="1.00" arrival="112.00" arrivalLane="51i_0" arrivalPos="10.00" arrivalSpeed="11.65" duration="91.00" routeLength="1015.10" waitSteps="0" timeLoss="14.94" rerouteNo="0" devices="tripinfo_left_5" vType="typeWE" speedFactor="1.00" vaporized=""/>
    <tripinfo id="down_7" depart="24.00" departLane="54o_0" departPos="5.10" departSpeed="0.00" departDelay="0.00" arrival="116.00" arrivalLane="53i_0" arrivalPos="10.00" arrivalSpeed="11.39" duration="92.00" routeLength="1015.10" waitSteps="0" timeLoss="16.04" rerouteNo="0" devices="tripinfo_down_7" vType="typeNS" speedFactor="1.00" vaporized=""/>
    <tripinfo id="up_4" depart="19.00" departLane="53o_0" departPos="5.10" departSpeed="0.00" departDelay="0.00" arrival="123.00" arrivalLane="54i_0" arrivalPos="10.00" arrivalSpeed="11.47" duration="104.00" routeLength="1015.10" waitSteps="2" timeLoss="27.56" rerouteNo="0" devices="tripinfo_up_4" vType="typeNS" speedFactor="1.00" vaporized=""/>
    <tripinfo id="down_9" depart="32.00" departLane="54o_0" departPos="5.10" departSpeed="0.00" departDelay="0.00" arrival="123.00" arrivalLane="53i_0" arrivalPos="10.00" arrivalSpeed="11.36" duration="91.00" routeLength="1015.10" waitSteps="0" timeLoss="15.00" rerouteNo="0" devices="tripinfo_down_9" vType="typeNS" speedFactor="1.00" vaporized=""/>
    <tripinfo id="up_6" depart="24.00" departLane="53o_0" departPos="5.10" departSpeed="0.00" departDelay="2.00" arrival="125.00" arrivalLane="54i_0" arrivalPos="10.00" arrivalSpeed="11.76" duration="101.00" routeLength="1015.10" waitSteps="0" timeLoss="24.36" rerouteNo="0" devices="tripinfo_up_6" vType="typeNS" speedFactor="1.00" vaporized=""/>
    <tripinfo id="up_12" depart="37.00" departLane="53o_0" departPos="5.10" departSpeed="0.00" departDelay="0.00" arrival="128.00" arrivalLane="54i_0" arrivalPos="10.00" arrivalSpeed="11.25" duration="91.00" routeLength="1015.10" waitSteps="0" timeLoss="14.32" rerouteNo="0" devices="tripinfo_up_12" vType="typeNS" speedFactor="1.00" vaporized=""/>
    <tripinfo id="down_10" depart="37.00" departLane="54o_0" departPos="5.10" departSpeed="0.00" departDelay="4.00" arrival="129.00" arrivalLane="53i_0" arrivalPos="10.00" arrivalSpeed="11.36" duration="92.00" routeLength="1015.10" waitSteps="0" timeLoss="15.80" rerouteNo="0" devices="tripinfo_down_10" vType="typeNS" speedFactor="1.00" vaporized=""/>
    <tripinfo id="down_14" depart="42.00" departLane="54o_0" departPos="5.10" departSpeed="0.00" departDelay="2.00" arrival="133.00" arrivalLane="53i_0" arrivalPos="10.00" arrivalSpeed="11.23" duration="91.00" routeLength="1015.10" waitSteps="0" timeLoss="14.98" rerouteNo="0" devices="tripinfo_down_14" vType="typeNS" speedFactor="1.00" vaporized=""/>
    <tripinfo id="up_15" depart="50.00" departLane="53o_0" departPos="5.10" departSpeed="0.00" departDelay="0.00" arrival="140.00" arrivalLane="54i_0" arrivalPos="10.00" arrivalSpeed="11.83" duration="90.00" routeLength="1015.10" waitSteps="0" timeLoss="14.01" rerouteNo="0" devices="tripinfo_up_15" vType="typeNS" speedFactor="1.00" vaporized=""/>
    <tripinfo id="left_11" depart="37.00" departLane="52o_0" departPos="5.10" departSpeed="0.00" departDelay="0.00" arrival="151.00" arrivalLane="51i_0" arrivalPos="10.00" arrivalSpeed="11.57" duration="114.00" routeLength="1015.10" waitSteps="10" timeLoss="37.94" rerouteNo="0" devices="tripinfo_left_11" vType="typeWE" speedFactor="1.00" vaporized=""/>
    <tripinfo id="right_8" depart="28.00" departLane="51o_0" departPos="5.10" departSpeed="0.00" departDelay="0.00" arrival="151.00" arrivalLane="52i_0" arrivalPos="10.00" arrivalSpeed="11.41" duration="123.00" routeLength="1015.10" waitSteps="20" timeLoss="46.44" rerouteNo="0" devices="tripinfo_right_8" vType="typeWE" speedFactor="1.00" vaporized=""/>
    <tripinfo id="right_16" depart="59.00" departLane="51o_0" departPos="5.10" departSpeed="0.00" departDelay="0.00" arrival="152.00" arrivalLane="52i_0" arrivalPos="10.00" arrivalSpeed="11.71" duration="93.00" routeLength="1015.10" waitSteps="0" timeLoss="17.17" rerouteNo="0" devices="tripinfo_right_16" vType="typeWE" speedFactor="1.00" vaporized=""/>
    <tripinfo id="left_13" depart="42.00" departLane="52o_0" departPos="5.10" departSpeed="0.00" departDelay="3.00" arrival="153.00" arrivalLane="51i_0" arrivalPos="10.00" arrivalSpeed="11.44" duration="111.00" routeLength="1015.10" waitSteps="6" timeLoss="35.05" rerouteNo="0" devices="tripinfo_left_13" vType="typeWE" speedFactor="1.00" vaporized=""/>
    <tripinfo id="up_17" depart="69.00" departLane="53o_0" departPos="5.10" departSpeed="0.00" departDelay="0.00" arrival="161.00" arrivalLane="54i_0" arrivalPos="10.00" arrivalSpeed="11.47" duration="92.00" routeLength="1015.10" waitSteps="0" timeLoss="15.79" rerouteNo="0" devices="tripinfo_up_17" vType="typeNS" speedFactor="1.00" vaporized=""/>
    <tripinfo id="right_18" depart="73.00" departLane="51o_0" departPos="5.10" departSpeed="0.00" departDelay="0.00" arrival="164.00" arrivalLane="52i_0" arrivalPos="10.00" arrivalSpeed="11.73" duration="91.00" routeLength="1015.10" waitSteps="0" timeLoss="14.13" rerouteNo="0" devices="tripinfo_right_18" vType="typeWE" speedFactor="1.00" vaporized=""/>
    <tripinfo id="up_21" depart="81.00" departLane="53o_0" departPos="5.10" departSpeed="0.00" departDelay="0.00" arrival="172.00" arrivalLane="54i_0" arrivalPos="10.00" arrivalSpeed="10.91" duration="91.00" routeLength="1015.10" waitSteps="0" timeLoss="14.82" rerouteNo="0" devices="tripinfo_up_21" vType="typeNS" speedFactor="1.00" vaporized=""/>
    <tripinfo id="down_20" depart="81.00" departLane="54o_0" departPos="5.10" departSpeed="0.00" departDelay="0.00" arrival="172.00" arrivalLane="53i_0" arrivalPos="10.00" arrivalSpeed="11.78" duration="91.00" routeLength="1015.10" waitSteps="0" timeLoss="14.32" rerouteNo="0" devices="tripinfo_down_20" vType="typeNS" speedFactor="1.00" vaporized=""/>
    <tripinfo id="right_19" depart="81.00" departLane="51o_0" departPos="5.10" departSpeed="0.00" departDelay="0.00" arrival="175.00" arrivalLane="52i_0" arrivalPos="10.00" arrivalSpeed="11.13" duration="94.00" routeLength="1015.10" waitSteps="0" timeLoss="17.34" rerouteNo="0" devices="tripinfo_right_19" vType="typeWE" speedFactor="1.00" vaporized=""/>
    <tripinfo id="right_22" depart="86.00" departLane="51o_0" departPos="5.10" departSpeed="0.00" departDelay="0.00" arrival="177.00" arrivalLane="52i_0" arrivalPos="10.00" arrivalSpeed="11.31" duration="91.00" routeLength="1015.10" waitSteps="0" timeLoss="14.93" rerouteNo="0" devices="tripinfo_right_22" vType="typeWE" speedFactor="1.00" vaporized=""/>
    <tripinfo id="left_23" depart="88.00" departLane="52o_0" departPos="5.10" departSpeed="0.00" departDelay="0.00" arrival="179.00" arrivalLane="51i_0" arrivalPos="10.00" arrivalSpeed="11.64" duration="91.00" routeLength="1015.10" waitSteps="0" timeLoss="14.65" rerouteNo="0" devices="tripinfo_left_23" vType="typeWE" speedFactor="1.00" vaporized=""/>
    <tripinfo id="up_24" depart="90.00" departLane="53o_0" departPos="5.10" departSpeed="0.00" departDelay="0.00" arrival="182.00" arrivalLane="54i_0" arrivalPos="10.00" arrivalSpeed="11.59" duration="92.00" routeLength="1015.10" waitSteps="0" timeLoss="15.75" rerouteNo="0" devices="tripinfo_up_24" vType="typeNS" speedFactor="1.00" vaporized=""/>
    <tripinfo id="left_25" depart="97.00" departLane="52o_0" departPos="5.10" departSpeed="0.00" departDelay="0.00" arrival="188.00" arrivalLane="51i_0" arrivalPos="10.00" arrivalSpeed="11.63" duration="91.00" routeLength="1015.10" waitSteps="0" timeLoss="14.89" rerouteNo="0" devices="tripinfo_left_25" vType="typeWE" speedFactor="1.00" vaporized=""/>
    <tripinfo id="right_26" depart="98.00" departLane="51o_0" departPos="5.10" departSpeed="0.00" departDelay="0.00" arrival="189.00" arrivalLane="52i_0" arrivalPos="10.00" arrivalSpeed="11.56" duration="91.00" routeLength="1015.10" waitSteps="0" timeLoss="14.66" rerouteNo="0" devices="tripinfo_right_26" vType="typeWE" speedFactor="1.00" vaporized=""/>
    <tripinfo id="left_28" depart="103.00" departLane="52o_0" departPos="5.10" departSpeed="0.00" departDelay="0.00" arrival="194.00" arrivalLane="51i_0" arrivalPos="10.00" arrivalSpeed="11.69" duration="91.00" routeLength="1015.10" waitSteps="0" timeLoss="14.87" rerouteNo="0" devices="tripinfo_left_28" vType="typeWE" speedFactor="1.00" vaporized=""/>
    <tripinfo id="right_29" depart="107.00" departLane="51o_0" departPos="5.10" departSpeed="0.00" departDelay="1.00" arrival="198.00" arrivalLane="52i_0" arrivalPos="10.00" arrivalSpeed="11.47" duration="91.00" routeLength="1015.10" waitSteps="0" timeLoss="14.67" rerouteNo="0" devices="tripinfo_right_29" vType="typeWE" speedFactor="1.00" vaporized=""/>
    <tripinfo id="right_30" depart="112.00" departLane="51o_0" departPos="5.10" departSpeed="0.00" departDelay="0.00" arrival="202.00" arrivalLane="52i_0" arrivalPos="10.00" arrivalSpeed="11.67" duration="90.00" routeLength="1015.10" waitSteps="0" timeLoss="13.66" rerouteNo="0" devices="tripinfo_right_30" vType="typeWE" speedFactor="1.00" vaporized=""/>
    <tripinfo id="down_31" depart="118.00" departLane="54o_0" departPos="5.10" departSpeed="0.00" departDelay="0.00" arrival="210.00" arrivalLane="53i_0" arrivalPos="10.00" arrivalSpeed="11.30" duration="92.00" routeLength="1015.10" waitSteps="0" timeLoss="15.69" rerouteNo="0" devices="tripinfo_down_31" vType="typeNS" speedFactor="1.00" vaporized=""/>
    <tripinfo id="up_27" depart="101.00" departLane="53o_0" departPos="5.10" departSpeed="0.00" departDelay="0.00" arrival="211.00" arrivalLane="54i_0" arrivalPos="10.00" arrivalSpeed="11.44" duration="110.00" routeLength="1015.10" waitSteps="9" timeLoss="34.23" rerouteNo="0" devices="tripinfo_up_27" vType="typeNS" speedFactor="1.00" vaporized=""/>
    <tripinfo id="down_32" depart="125.00" departLane="54o_0" departPos="5.10" departSpeed="0.00" departDelay="1.00" arrival="217.00" arrivalLane="53i_0" arrivalPos="10.00" arrivalSpeed="11.40" duration="92.00" routeLength="1015.10" waitSteps="0" timeLoss="15.63" rerouteNo="0" devices="tripinfo_down_32" vType="typeNS" speedFactor="1.00" vaporized=""/>
    <tripinfo id="up_33" depart="129.00" departLane="53o_0" departPos="5.10" departSpeed="0.00" departDelay="2.00" arrival="220.00" arrivalLane="54i_0" arrivalPos="10.00" arrivalSpeed="11.45" duration="91.00" routeLength="1015.10" waitSteps="0" timeLoss="14.67" rerouteNo="0" devices="tripinfo_up_33" vType="typeNS" speedFactor="1.00" vaporized=""/>
    <tripinfo id="up_35" depart="134.00" departLane="53o_0" departPos="5.10" departSpeed="0.00" departDelay="2.00" arrival="225.00" arrivalLane="54i_0" arrivalPos="10.00" arrivalSpeed="11.43" duration="91.00" routeLength="1015.10" waitSteps="0" timeLoss="14.80" rerouteNo="0" devices="tripinfo_up_35" vType="typeNS" speedFactor="1.00" vaporized=""/>
    <tripinfo id="down_36" depart="136.00" departLane="54o_0" departPos="5.10" departSpeed="0.00" departDelay="0.00" arrival="228.00" arrivalLane="53i_0" arrivalPos="10.00" arrivalSpeed="11.28" duration="92.00" routeLength="1015.10" waitSteps="0" timeLoss="16.07" rerouteNo="0" devices="tripinfo_down_36" vType="typeNS" speedFactor="1.00" vaporized=""/>
    <tripinfo id="up_39" depart="142.00" departLane="53o_0" departPos="5.10" departSpeed="0.00" departDelay="0.00" arrival="233.00" arrivalLane="54i_0" arrivalPos="10.00" arrivalSpeed="11.33" duration="91.00" routeLength="1015.10" waitSteps="0" timeLoss="14.16" rerouteNo="0" devices="tripinfo_up_39" vType="typeNS" speedFactor="1.00" vaporized=""/>
    <tripinfo id="down_38" depart="142.00" departLane="54o_0" departPos="5.10" departSpeed="0.00" departDelay="0.00" arrival="233.00" arrivalLane="53i_0" arrivalPos="10.00" arrivalSpeed="11.64" duration="91.00" routeLength="1015.10" waitSteps="0" timeLoss="14.68" rerouteNo="0" devices="tripinfo_down_38" vType="typeNS" speedFactor="1.00" vaporized=""/>
    <tripinfo id="right_34" depart="131.00" departLane="51o_0" departPos="5.10" departSpeed="0.00" departDelay="0.00" arrival="242.00" arrivalLane="52i_0" arrivalPos="10.00" arrivalSpeed="11.50" duration="111.00" routeLength="1015.10" waitSteps="9" timeLoss="35.05" rerouteNo="0" devices="tripinfo_right_34" vType="typeWE" speedFactor="1.00" vaporized=""/>
    <tripinfo id="left_42" depart="153.00" departLane="52o_0" departPos="5.10" departSpeed="0.00" departDelay="0.00" arrival="243.00" arrivalLane="51i_0" arrivalPos="10.00" arrivalSpeed="11.47" duration="90.00" routeLength="1015.10" waitSteps="0" timeLoss="13.88" rerouteNo="0" devices="tripinfo_left_42" vType="typeWE" speedFactor="1.00" vaporized=""/>
    <tripinfo id="right_37" depart="137.00" departLane="51o_0" departPos="5.10" departSpeed="0.00" departDelay="0.00" arrival="244.00" arrivalLane="52i_0" arrivalPos="10.00" arrivalSpeed="11.12" duration="107.00" routeLength="1015.10" waitSteps="5" timeLoss="31.06" rerouteNo="0" devices="tripinfo_right_37" vType="typeWE" speedFactor="1.00" vaporized=""/>
    <tripinfo id="right_40" depart="151.00" departLane="51o_0" departPos="5.10" departSpeed="0.00" departDelay="0.00" arrival="246.00" arrivalLane="52i_0" arrivalPos="10.00" arrivalSpeed="11.65" duration="95.00" routeLength="1015.10" waitSteps="0" timeLoss="18.75" rerouteNo="0" devices="tripinfo_right_40" vType="typeWE" speedFactor="1.00" vaporized=""/>
    <tripinfo id="right_41" depart="156.00" departLane="51o_0" departPos="5.10" departSpeed="0.00" departDelay="3.00" arrival="248.00" arrivalLane="52i_0" arrivalPos="10.00" arrivalSpeed="11.56" duration="92.00" routeLength="1015.10" waitSteps="0" timeLoss="15.49" rerouteNo="0" devices="tripinfo_right_41" vType="typeWE" speedFactor="1.00" vaporized=""/>
    <tripinfo id="left_43" depart="158.00" departLane="52o_0" departPos="5.10" departSpeed="0.00" departDelay="0.00" arrival="249.00" arrivalLane="51i_0" arrivalPos="10.00" arrivalSpeed="11.44" duration="91.00" routeLength="1015.10" waitSteps="0" timeLoss="14.15" rerouteNo="0" devices="tripinfo_left_43" vType="typeWE" speedFactor="1.00" vaporized=""/>
    <tripinfo id="right_45" depart="161.00" departLane="51o_0" departPos="5.10" departSpeed="0.00" departDelay="2.00" arrival="252.00" arrivalLane="52i_0" arrivalPos="10.00" arrivalSpeed="11.20" duration="91.00" routeLength="1015.10" waitSteps="0" timeLoss="14.76" rerouteNo="0" devices="tripinfo_right_45" vType="typeWE" speedFactor="1.00" vaporized=""/>
    <tripinfo id="left_46" depart="164.00" departLane="52o_0" departPos="5.10" departSpeed="0.00" departDelay="5.00" arrival="255.00" arrivalLane="51i_0" arrivalPos="10.00" arrivalSpeed="11.30" duration="91.00" routeLength="1015.10" waitSteps="0" timeLoss="14.68" rerouteNo="0" devices="tripinfo_left_46" vType="typeWE" speedFactor="1.00" vaporized=""/>
    <tripinfo id="left_50" depart="169.00" departLane="52o_0" departPos="5.10" departSpeed="0.00" departDelay="3.00" arrival="261.00" arrivalLane="51i_0" arrivalPos="10.00" arrivalSpeed="11.79" duration="92.00" routeLength="1015.10" waitSteps="0" timeLoss="15.73" rerouteNo="0" devices="tripinfo_left_50" vType="typeWE" speedFactor="1.00" vaporized=""/>
    <tripinfo id="left_53" depart="175.00" departLane="52o_0" departPos="5.10" departSpeed="0.00" departDelay="2.00" arrival="266.00" arrivalLane="51i_0" arrivalPos="10.00" arrivalSpeed="11.35" duration="91.00" routeLength="1015.10" waitSteps="0" timeLoss="14.40" rerouteNo="0" devices="tripinfo_left_53" vType="typeWE" speedFactor="1.00" vaporized=""/>
    <tripinfo id="left_54" depart="180.00" departLane="52o_0" departPos="5.10" departSpeed="0.00" departDelay="6.00" arrival="271.00" arrivalLane="51i_0" arrivalPos="10.00" arrivalSpeed="11.45" duration="91.00" routeLength="1015.10" waitSteps="0" timeLoss="15.11" rerouteNo="0" devices="tripinfo_left_54" vType="typeWE" speedFactor="1.00" vaporized=""/>
    <tripinfo id="left_56" depart="185.00" departLane="52o_0" departPos="5.10" departSpeed="0.00" departDelay="8.00" arrival="277.00" arrivalLane="51i_0" arrivalPos="10.00" arrivalSpeed="11.77" duration="92.00" routeLength="1015.10" waitSteps="0" timeLoss="15.33" rerouteNo="0" devices="tripinfo_left_56" vType="typeWE" speedFactor="1.00" vaporized=""/>
    <tripinfo id="left_57" depart="190.00" departLane="52o_0" departPos="5.10" departSpeed="0.00" departDelay="11.00" arrival="282.00" arrivalLane="51i_0" arrivalPos="10.00" arrivalSpeed="11.52" duration="92.00" routeLength="1015.10" waitSteps="0" timeLoss="15.28" rerouteNo="0" devices="tripinfo_left_57" vType="typeWE" speedFactor="1.00" vaporized=""/>
    <tripinfo id="up_51" depart="172.00" departLane="53o_0" departPos="5.10" departSpeed="0.00" departDelay="1.00" arrival="291.00" arrivalLane="54i_0" arrivalPos="10.00" arrivalSpeed="11.64" duration="119.00" routeLength="1015.10" waitSteps="17" timeLoss="42.80" rerouteNo="0" devices="tripinfo_up_51" vType="typeNS" speedFactor="1.00" vaporized=""/>
    <tripinfo id="down_44" depart="158.00" departLane="54o_0" departPos="5.10" departSpeed="0.00" departDelay="0.00" arrival="292.00" arrivalLane="53i_0" arrivalPos="10.00" arrivalSpeed="11.78" duration="134.00" routeLength="1015.10" waitSteps="31" timeLoss="57.94" rerouteNo="0" devices="tripinfo_down_44" vType="typeNS" speedFactor="1.00" vaporized=""/>
    <tripinfo id="up_59" depart="197.00" departLane="53o_0" departPos="5.10" departSpeed="0.00" departDelay="0.00" arrival="293.00" arrivalLane="54i_0" arrivalPos="10.00" arrivalSpeed="11.36" duration="96.00" routeLength="1015.10" waitSteps="0" timeLoss="19.77" rerouteNo="0" devices="tripinfo_up_59" vType="typeNS" speedFactor="1.00" vaporized=""/>
    <tripinfo id="down_47" depart="163.00" departLane="54o_0" departPos="5.10" departSpeed="0.00" departDelay="4.00" arrival="294.00" arrivalLane="53i_0" arrivalPos="10.00" arrivalSpeed="11.65" duration="131.00" routeLength="1015.10" waitSteps="28" timeLoss="54.69" rerouteNo="0" devices="tripinfo_down_47" vType="typeNS" speedFactor="1.00" vaporized=""/>
    <tripinfo id="up_61" depart="202.00" departLane="53o_0" departPos="5.10" departSpeed="0.00" departDelay="1.00" arrival="295.00" arrivalLane="54i_0" arrivalPos="10.00" arrivalSpeed="11.64" duration="93.00" routeLength="1015.10" waitSteps="0" timeLoss="16.29" rerouteNo="0" devices="tripinfo_up_61" vType="typeNS" speedFactor="1.00" vaporized=""/>
    <tripinfo id="down_48" depart="168.00" departLane="54o_0" departPos="5.10" departSpeed="0.00" departDelay="7.00" arrival="296.00" arrivalLane="53i_0" arrivalPos="10.00" arrivalSpeed="11.55" duration="128.00" routeLength="1015.10" waitSteps="25" timeLoss="51.50" rerouteNo="0" devices="tripinfo_down_48" vType="typeNS" speedFactor="1.00" vaporized=""/>
    <tripinfo id="down_49" depart="173.00" departLane="54o_0" departPos="5.10" departSpeed="0.00" departDelay="11.00" arrival="297.00" arrivalLane="53i_0" arrivalPos="10.00" arrivalSpeed="11.04" duration="124.00" routeLength="1015.10" waitSteps="22" timeLoss="48.07" rerouteNo="0" devices="tripinfo_down_49" vType="typeNS" speedFactor="1.00" vaporized=""/>
    <tripinfo id="down_52" depart="178.00" departLane="54o_0" departPos="5.10" departSpeed="0.00" departDelay="6.00" arrival="300.00" arrivalLane="53i_0" arrivalPos="10.00" arrivalSpeed="11.15" duration="122.00" routeLength="1015.10" waitSteps="18" timeLoss="45.80" rerouteNo="0" devices="tripinfo_down_52" vType="typeNS" speedFactor="1.00" vaporized=""/>
    <tripinfo id="up_63" depart="211.00" departLane="53o_0" departPos="5.10" departSpeed="0.00" departDelay="0.00" arrival="302.00" arrivalLane="54i_0" arrivalPos="10.00" arrivalSpeed="11.38" duration="91.00" routeLength="1015.10" waitSteps="0" timeLoss="14.78" rerouteNo="0" devices="tripinfo_up_63" vType="typeNS" speedFactor="1.00" vaporized=""/>
    <tripinfo id="down_55" depart="183.00" departLane="54o_0" departPos="5.10" departSpeed="0.00" departDelay="7.00" arrival="302.00" arrivalLane="53i_0" arrivalPos="10.00" arrivalSpeed="11.50" duration="119.00" routeLength="1015.10" waitSteps="13" timeLoss="42.55" rerouteNo="0" devices="tripinfo_down_55" vType="typeNS" speedFactor="1.00" vaporized=""/>
    <tripinfo id="down_58" depart="188.00" departLane="54o_0" departPos="5.10" departSpeed="0.00" departDelay="1.00" arrival="304.00" arrivalLane="53i_0" arrivalPos="10.00" arrivalSpeed="11.37" duration="116.00" routeLength="1015.10" waitSteps="10" timeLoss="39.41" rerouteNo="0" devices="tripinfo_down_58" vType="typeNS" speedFactor="1.00" vaporized=""/>
    <tripinfo id="down_60" depart="200.00" departLane="54o_0" departPos="5.10" departSpeed="0.00" departDelay="0.00" arrival="305.00" arrivalLane="53i_0" arrivalPos="10.00" arrivalSpeed="11.29" duration="105.00" routeLength="1015.10" waitSteps="0" timeLoss="29.13" rerouteNo="0" devices="tripinfo_down_60" vType="typeNS" speedFactor="1.00" vaporized=""/>
    <tripinfo id="down_62" depart="205.00" departLane="54o_0" departPos="5.10" departSpeed="0.00" departDelay="1.00" arrival="307.00" arrivalLane="53i_0" arrivalPos="10.00" arrivalSpeed="11.65" duration="102.00" routeLength="1015.10" waitSteps="0" timeLoss="26.14" rerouteNo="0" devices="tripinfo_down_62" vType="typeNS" speedFactor="1.00" vaporized=""/>
    <tripinfo id="up_64" depart="217.00" departLane="53o_0" departPos="5.10" departSpeed="0.00" departDelay="2.00" arrival="308.00" arrivalLane="54i_0" arrivalPos="10.00" arrivalSpeed="11.56" duration="91.00" routeLength="1015.10" waitSteps="0" timeLoss="14.83" rerouteNo="0" devices="tripinfo_up_64" vType="typeNS" speedFactor="1.00" vaporized=""/>
    <tripinfo id="left_65" depart="221.00" departLane="52o_0" departPos="5.10" departSpeed="0.00" departDelay="0.00" arrival="312.00" arrivalLane="51i_0" arrivalPos="10.00" arrivalSpeed="11.64" duration="91.00" routeLength="1015.10" waitSteps="0" timeLoss="15.02" rerouteNo="0" devices="tripinfo_left_65" vType="typeWE" speedFactor="1.00" vaporized=""/>
    <tripinfo id="right_66" depart="222.00" departLane="51o_0" departPos="5.10" departSpeed="0.00" departDelay="0.00" arrival="313.00" arrivalLane="52i_0" arrivalPos="10.00" arrivalSpeed="11.49" duration="91.00" routeLength="1015.10" waitSteps="0" timeLoss="14.96" rerouteNo="0" devices="tripinfo_right_66" vType="typeWE" speedFactor="1.00" vaporized=""/>
    <tripinfo id="left_67" depart="226.00" departLane="52o_0" departPos="5.10" departSpeed="0.00" departDelay="3.00" arrival="317.00" arrivalLane="51i_0" arrivalPos="10.00" arrivalSpeed="11.46" duration="91.00" routeLength="1015.10" waitSteps="0" timeLoss="14.69" rerouteNo="0" devices="tripinfo_left_67" vType="typeWE" speedFactor="1.00" vaporized=""/>
    <tripinfo id="right_70" depart="227.00" departLane="51o_0" departPos="5.10" departSpeed="0.00" departDelay="0.00" arrival="318.00" arrivalLane="52i_0" arrivalPos="10.00" arrivalSpeed="11.53" duration="91.00" routeLength="1015.10" waitSteps="0" timeLoss="14.72" rerouteNo="0" devices="tripinfo_right_70" vType="typeWE" speedFactor="1.00" vaporized=""/>
    <tripinfo id="left_68" depart="231.00" departLane="52o_0" departPos="5.10" departSpeed="0.00" departDelay="5.00" arrival="323.00" arrivalLane="51i_0" arrivalPos="10.00" arrivalSpeed="11.33" duration="92.00" routeLength="1015.10" waitSteps="0" timeLoss="15.98" rerouteNo="0" devices="tripinfo_left_68" vType="typeWE" speedFactor="1.00" vaporized=""/>
    <tripinfo id="left_72" depart="237.00" departLane="52o_0" departPos="5.10" departSpeed="0.00" departDelay="6.00" arrival="330.00" arrivalLane="51i_0" arrivalPos="10.00" arrivalSpeed="11.73" duration="93.00" routeLength="1015.10" waitSteps="0" timeLoss="16.72" rerouteNo="0" devices="tripinfo_left_72" vType="typeWE" speedFactor="1.00" vaporized=""/>
    <tripinfo id="up_71" depart="230.00" departLane="53o_0" departPos="5.10" departSpeed="0.00" departDelay="0.00" arrival="339.00" arrivalLane="54i_0" arrivalPos="10.00" arrivalSpeed="11.39" duration="109.00" routeLength="1015.10" waitSteps="6" timeLoss="32.53" rerouteNo="0" devices="tripinfo_up_71" vType="typeNS" speedFactor="1.00" vaporized=""/>
    <tripinfo id="down_69" depart="226.00" departLane="54o_0" departPos="5.10" departSpeed="0.00" departDelay="0.00" arrival="340.00" arrivalLane="53i_0" arrivalPos="10.00" arrivalSpeed="11.41" duration="114.00" routeLength="1015.10" waitSteps="12" timeLoss="37.56" rerouteNo="0" devices="tripinfo_down_69" vType="typeNS" speedFactor="1.00" vaporized=""/>
    <tripinfo id="down_73" depart="233.00" departLane="54o_0" departPos="5.10" departSpeed="0.00" departDelay="0.00" arrival="342.00" arrivalLane="53i_0" arrivalPos="10.00" arrivalSpeed="11.58" duration="109.00" routeLength="1015.10" waitSteps="6" timeLoss="33.15" rerouteNo="0" devices="tripinfo_down_73" vType="typeNS" speedFactor="1.00" vaporized=""/>
    <tripinfo id="down_74" depart="241.00" departLane="54o_0" departPos="5.10" departSpeed="0.00" departDelay="0.00" arrival="345.00" arrivalLane="53i_0" arrivalPos="10.00" arrivalSpeed="11.47" duration="104.00" routeLength="1015.10" waitSteps="0" timeLoss="27.59" rerouteNo="0" devices="tripinfo_down_74" vType="typeNS" speedFactor="1.00" vaporized=""/>
    <tripinfo id="down_76" depart="246.00" departLane="54o_0" departPos="5.10" departSpeed="0.00" departDelay="4.00" arrival="347.00" arrivalLane="53i_0" arrivalPos="10.00" arrivalSpeed="11.34" duration="101.00" routeLength="1015.10" waitSteps="0" timeLoss="24.40" rerouteNo="0" devices="tripinfo_down_76" vType="typeNS" speedFactor="1.00" vaporized=""/>
    <tripinfo id="right_79" depart="261.00" departLane="51o_0" departPos="5.10" departSpeed="0.00" departDelay="2.00" arrival="352.00" arrivalLane="52i_0" arrivalPos="10.00" arrivalSpeed="11.68" duration="91.00" routeLength="1015.10" waitSteps="0" timeLoss="14.72" rerouteNo="0" devices="tripinfo_right_79" vType="typeWE" speedFactor="1.00" vaporized=""/>
    <tripinfo id="left_75" depart="248.00" departLane="52o_0" departPos="5.10" departSpeed="0.00" departDelay="6.00" arrival="353.00" arrivalLane="51i_0" arrivalPos="10.00" arrivalSpeed="11.49" duration="105.00" routeLength="1015.10" waitSteps="4" timeLoss="28.66" rerouteNo="0" devices="tripinfo_left_75" vType="typeWE" speedFactor="1.00" vaporized=""/>
    <tripinfo id="left_77" depart="253.00" departLane="52o_0" departPos="5.10" departSpeed="0.00" departDelay="9.00" arrival="355.00" arrivalLane="51i_0" arrivalPos="10.00" arrivalSpeed="11.33" duration="102.00" routeLength="1015.10" waitSteps="0" timeLoss="26.11" rerouteNo="0" devices="tripinfo_left_77" vType="typeWE" speedFactor="1.00" vaporized=""/>
    <tripinfo id="left_78" depart="258.00" departLane="52o_0" departPos="5.10" departSpeed="0.00" departDelay="4.00" arrival="357.00" arrivalLane="51i_0" arrivalPos="10.00" arrivalSpeed="11.74" duration="99.00" routeLength="1015.10" waitSteps="0" timeLoss="22.95" rerouteNo="0" devices="tripinfo_left_78" vType="typeWE" speedFactor="1.00" vaporized=""/>
    <tripinfo id="left_81" depart="264.00" departLane="52o_0" departPos="5.10" departSpeed="0.00" departDelay="1.00" arrival="359.00" arrivalLane="51i_0" arrivalPos="10.00" arrivalSpeed="11.70" duration="95.00" routeLength="1015.10" waitSteps="0" timeLoss="18.78" rerouteNo="0" devices="tripinfo_left_81" vType="typeWE" speedFactor="1.00" vaporized=""/>