<?xml version="1.0" encoding="UTF-8"?>

<!-- generated on Mon Apr 30 16:35:33 2018 by SUMO Version 0.32.0
<?xml version="1.0" encoding="UTF-8"?>

<configuration xmlns:xsi="http://www.w3.org/2001/XMLSchema-instance" xsi:noNamespaceSchemaLocation="http://sumo.dlr.de/xsd/sumoConfiguration.xsd">

    <input>
        <net-file value="data/cross.net.xml"/>
        <route-files value="data/cross.rou.xml"/>
        <additional-files value="data/cross.det.xml"/>
    </input>

    <output>
        <summary-output value="data/cross.out"/>
        <tripinfo-output value="output/tripinfo25.xml"/>
    </output>

    <time>
        <begin value="0"/>
    </time>

    <report>
        <verbose value="true"/>
        <duration-log.statistics value="true"/>
        <no-step-log value="true"/>
    </report>

    <traci_server>
        <remote-port value="57876"/>
    </traci_server>

</configuration>
-->

<tripinfos xmlns:xsi="http://www.w3.org/2001/XMLSchema-instance" xsi:noNamespaceSchemaLocation="http://sumo.dlr.de/xsd/tripinfo_file.xsd">
    <tripinfo id="up_2" depart="3.00" departLane="53o_0" departPos="5.10" departSpeed="0.00" departDelay="0.00" arrival="94.00" arrivalLane="54i_0" arrivalPos="10.00" arrivalSpeed="11.43" duration="91.00" routeLength="1015.10" waitSteps="0" timeLoss="14.66" rerouteNo="0" devices="tripinfo_up_2" vType="typeNS" speedFactor="1.00" vaporized=""/>
    <tripinfo id="down_5" depart="9.00" departLane="54o_0" departPos="5.10" departSpeed="0.00" departDelay="0.00" arrival="100.00" arrivalLane="53i_0" arrivalPos="10.00" arrivalSpeed="11.41" duration="91.00" routeLength="1015.10" waitSteps="0" timeLoss="14.23" rerouteNo="0" devices="tripinfo_down_5" vType="typeNS" speedFactor="1.00" vaporized=""/>
    <tripinfo id="up_6" depart="9.00" departLane="53o_0" departPos="5.10" departSpeed="0.00" departDelay="0.00" arrival="101.00" arrivalLane="54i_0" arrivalPos="10.00" arrivalSpeed="11.24" duration="92.00" routeLength="1015.10" waitSteps="0" timeLoss="15.41" rerouteNo="0" devices="tripinfo_up_6" vType="typeNS" speedFactor="1.00" vaporized=""/>
    <tripinfo id="up_8" depart="14.00" departLane="53o_0" departPos="5.10" departSpeed="0.00" departDelay="3.00" arrival="105.00" arrivalLane="54i_0" arrivalPos="10.00" arrivalSpeed="11.16" duration="91.00" routeLength="1015.10" waitSteps="0" timeLoss="14.47" rerouteNo="0" devices="tripinfo_up_8" vType="typeNS" speedFactor="1.00" vaporized=""/>
    <tripinfo id="down_7" depart="14.00" departLane="54o_0" departPos="5.10" departSpeed="0.00" departDelay="4.00" arrival="106.00" arrivalLane="53i_0" arrivalPos="10.00" arrivalSpeed="11.47" duration="92.00" routeLength="1015.10" waitSteps="0" timeLoss="15.70" rerouteNo="0" devices="tripinfo_down_7" vType="typeNS" speedFactor="1.00" vaporized=""/>
    <tripinfo id="left_3" depart="7.00" departLane="52o_0" departPos="5.10" departSpeed="0.00" departDelay="0.00" arrival="116.00" arrivalLane="51i_0" arrivalPos="10.00" arrivalSpeed="11.78" duration="109.00" routeLength="1015.10" waitSteps="7" timeLoss="32.85" rerouteNo="0" devices="tripinfo_left_3" vType="typeWE" speedFactor="1.00" vaporized=""/>
    <tripinfo id="right_0" depart="2.00" departLane="51o_0" departPos="5.10" departSpeed="0.00" departDelay="0.00" arrival="117.00" arrivalLane="52i_0" arrivalPos="10.00" arrivalSpeed="11.63" duration="115.00" routeLength="1015.10" waitSteps="13" timeLoss="38.42" rerouteNo="0" devices="tripinfo_right_0" vType="typeWE" speedFactor="1.00" vaporized=""/>
    <tripinfo id="right_1" depart="7.00" departLane="51o_0" departPos="5.10" departSpeed="0.00" departDelay="4.00" arrival="119.00" arrivalLane="52i_0" arrivalPos="10.00" arrivalSpeed="11.30" duration="112.00" routeLength="1015.10" waitSteps="8" timeLoss="35.65" rerouteNo="0" devices="tripinfo_right_1" vType="typeWE" speedFactor="1.00" vaporized=""/>
    <tripinfo id="left_4" depart="12.00" departLane="52o_0" departPos="5.10" departSpeed="0.00" departDelay="4.00" arrival="119.00" arrivalLane="51i_0" arrivalPos="10.00" arrivalSpeed="11.54" duration="107.00" routeLength="1015.10" waitSteps="4" timeLoss="30.88" rerouteNo="0" devices="tripinfo_left_4" vType="typeWE" speedFactor="1.00" vaporized=""/>
    <tripinfo id="right_9" depart="21.00" departLane="51o_0" departPos="5.10" departSpeed="0.00" departDelay="0.00" arrival="121.00" arrivalLane="52i_0" arrivalPos="10.00" arrivalSpeed="11.61" duration="100.00" routeLength="1015.10" waitSteps="0" timeLoss="23.42" rerouteNo="0" devices="tripinfo_right_9" vType="typeWE" speedFactor="1.00" vaporized=""/>
    <tripinfo id="left_10" depart="23.00" departLane="52o_0" departPos="5.10" departSpeed="0.00" departDelay="0.00" arrival="121.00" arrivalLane="51i_0" arrivalPos="10.00" arrivalSpeed="11.60" duration="98.00" routeLength="1015.10" waitSteps="0" timeLoss="21.82" rerouteNo="0" devices="tripinfo_left_10" vType="typeWE" speedFactor="1.00" vaporized=""/>
    <tripinfo id="left_13" depart="31.00" departLane="52o_0" departPos="5.10" departSpeed="0.00" departDelay="0.00" arrival="123.00" arrivalLane="51i_0" arrivalPos="10.00" arrivalSpeed="11.28" duration="92.00" routeLength="1015.10" waitSteps="0" timeLoss="15.47" rerouteNo="0" devices="tripinfo_left_13" vType="typeWE" speedFactor="1.00" vaporized=""/>
    <tripinfo id="right_14" depart="34.00" departLane="51o_0" departPos="5.10" departSpeed="0.00" departDelay="0.00" arrival="125.00" arrivalLane="52i_0" arrivalPos="10.00" arrivalSpeed="11.36" duration="91.00" routeLength="1015.10" waitSteps="0" timeLoss="14.86" rerouteNo="0" devices="tripinfo_right_14" vType="typeWE" speedFactor="1.00" vaporized=""/>
    <tripinfo id="left_15" depart="36.00" departLane="52o_0" departPos="5.10" departSpeed="0.00" departDelay="1.00" arrival="126.00" arrivalLane="51i_0" arrivalPos="10.00" arrivalSpeed="11.06" duration="90.00" routeLength="1015.10" waitSteps="0" timeLoss="13.75" rerouteNo="0" devices="tripinfo_left_15" vType="typeWE" speedFactor="1.00" vaporized=""/>
    <tripinfo id="left_17" depart="41.00" departLane="52o_0" departPos="5.10" departSpeed="0.00" departDelay="3.00" arrival="133.00" arrivalLane="51i_0" arrivalPos="10.00" arrivalSpeed="11.65" duration="92.00" routeLength="1015.10" waitSteps="0" timeLoss="15.89" rerouteNo="0" devices="tripinfo_left_17" vType="typeWE" speedFactor="1.00" vaporized=""/>
    <tripinfo id="right_18" depart="43.00" departLane="51o_0" departPos="5.10" departSpeed="0.00" departDelay="0.00" arrival="135.00" arrivalLane="52i_0" arrivalPos="10.00" arrivalSpeed="11.69" duration="92.00" routeLength="1015.10" waitSteps="0" timeLoss="15.70" rerouteNo="0" devices="tripinfo_right_18" vType="typeWE" speedFactor="1.00" vaporized=""/>
    <tripinfo id="left_19" depart="47.00" departLane="52o_0" departPos="5.10" departSpeed="0.00" departDelay="2.00" arrival="138.00" arrivalLane="51i_0" arrivalPos="10.00" arrivalSpeed="11.47" duration="91.00" routeLength="1015.10" waitSteps="0" timeLoss="14.77" rerouteNo="0" devices="tripinfo_left_19" vType="typeWE" speedFactor="1.00" vaporized=""/>
    <tripinfo id="left_22" depart="52.00" departLane="52o_0" departPos="5.10" departSpeed="0.00" departDelay="0.00" arrival="143.00" arrivalLane="51i_0" arrivalPos="10.00" arrivalSpeed="11.59" duration="91.00" routeLength="1015.10" waitSteps="0" timeLoss="14.24" rerouteNo="0" devices="tripinfo_left_22" vType="typeWE" speedFactor="1.00" vaporized=""/>
    <tripinfo id="left_23" depart="57.00" departLane="52o_0" departPos="5.10" departSpeed="0.00" departDelay="1.00" arrival="149.00" arrivalLane="51i_0" arrivalPos="10.00" arrivalSpeed="11.73" duration="92.00" routeLength="1015.10" waitSteps="0" timeLoss="15.27" rerouteNo="0" devices="tripinfo_left_23" vType="typeWE" speedFactor="1.00" vaporized=""/>
    <tripinfo id="right_26" depart="60.00" departLane="51o_0" departPos="5.10" departSpeed="0.00" departDelay="0.00" arrival="151.00" arrivalLane="52i_0" arrivalPos="10.00" arrivalSpeed="11.41" duration="91.00" routeLength="1015.10" waitSteps="0" timeLoss="14.24" rerouteNo="0" devices="tripinfo_right_26" vType="typeWE" speedFactor="1.00" vaporized=""/>
    <tripinfo id="left_28" depart="64.00" departLane="52o_0" departPos="5.10" departSpeed="0.00" departDelay="0.00" arrival="155.00" arrivalLane="51i_0" arrivalPos="10.00" arrivalSpeed="11.13" duration="91.00" routeLength="1015.10" waitSteps="0" timeLoss="14.81" rerouteNo="0" devices="tripinfo_left_28" vType="typeWE" speedFactor="1.00" vaporized=""/>
    <tripinfo id="left_29" depart="69.00" departLane="52o_0" departPos="5.10" departSpeed="0.00" departDelay="1.00" arrival="161.00" arrivalLane="51i_0" arrivalPos="10.00" arrivalSpeed="11.51" duration="92.00" routeLength="1015.10" waitSteps="0" timeLoss="15.66" rerouteNo="0" devices="tripinfo_left_29" vType="typeWE" speedFactor="1.00" vaporized=""/>
    <tripinfo id="left_31" depart="74.00" departLane="52o_0" departPos="5.10" departSpeed="0.00" departDelay="4.00" arrival="166.00" arrivalLane="51i_0" arrivalPos="10.00" arrivalSpeed="11.58" duration="92.00" routeLength="1015.10" waitSteps="0" timeLoss="15.29" rerouteNo="0" devices="tripinfo_left_31" vType="typeWE" speedFactor="1.00" vaporized=""/>
    <tripinfo id="up_12" depart="26.00" departLane="53o_0" departPos="5.10" departSpeed="0.00" departDelay="0.00" arrival="176.00" arrivalLane="54i_0" arrivalPos="10.00" arrivalSpeed="11.35" duration="150.00" routeLength="1015.10" waitSteps="49" timeLoss="73.46" rerouteNo="0" devices="tripinfo_up_12" vType="typeNS" speedFactor="1.00" vaporized=""/>
    <tripinfo id="down_11" depart="26.00" departLane="54o_0" departPos="5.10" departSpeed="0.00" departDelay="0.00" arrival="176.00" arrivalLane="53i_0" arrivalPos="10.00" arrivalSpeed="11.71" duration="150.00" routeLength="1015.10" waitSteps="50" timeLoss="73.67" rerouteNo="0" devices="tripinfo_down_11" vType="typeNS" speedFactor="1.00" vaporized=""/>
    <tripinfo id="up_21" depart="50.00" departLane="53o_0" departPos="5.10" departSpeed="0.00" departDelay="0.00" arrival="178.00" arrivalLane="54i_0" arrivalPos="10.00" arrivalSpeed="11.64" duration="128.00" routeLength="1015.10" waitSteps="26" timeLoss="52.18" rerouteNo="0" devices="tripinfo_up_21" vType="typeNS" speedFactor="1.00" vaporized=""/>
    <tripinfo id="down_16" depart="36.00" departLane="54o_0" departPos="5.10" departSpeed="0.00" departDelay="0.00" arrival="178.00" arrivalLane="53i_0" arrivalPos="10.00" arrivalSpeed="11.23" duration="142.00" routeLength="1015.10" waitSteps="41" timeLoss="66.14" rerouteNo="0" devices="tripinfo_down_16" vType="typeNS" speedFactor="1.00" vaporized=""/>
    <tripinfo id="down_20" depart="48.00" departLane="54o_0" departPos="5.10" departSpeed="0.00" departDelay="0.00" arrival="180.00" arrivalLane="53i_0" arrivalPos="10.00" arrivalSpeed="11.43" duration="132.00" routeLength="1015.10" waitSteps="28" timeLoss="55.95" rerouteNo="0" devices="tripinfo_down_20" vType="typeNS" speedFactor="1.00" vaporized=""/>
    <tripinfo id="up_24" depart="56.00" departLane="53o_0" departPos="5.10" departSpeed="0.00" departDelay="0.00" arrival="181.00" arrivalLane="54i_0" arrivalPos="10.00" arrivalSpeed="11.38" duration="125.00" routeLength="1015.10" waitSteps="21" timeLoss="48.73" rerouteNo="0" devices="tripinfo_up_24" vType="typeNS" speedFactor="1.00" vaporized=""/>
    <tripinfo id="down_34" depart="87.00" departLane="54o_0" departPos="5.10" departSpeed="0.00" departDelay="0.00" arrival="182.00" arrivalLane="53i_0" arrivalPos="10.00" arrivalSpeed="11.60" duration="95.00" routeLength="1015.10" waitSteps="0" timeLoss="18.86" rerouteNo="0" devices="tripinfo_down_34" vType="typeNS" speedFactor="1.00" vaporized=""/>
    <tripinfo id="up_25" depart="61.00" departLane="53o_0" departPos="5.10" departSpeed="0.00" departDelay="3.00" arrival="183.00" arrivalLane="54i_0" arrivalPos="10.00" arrivalSpeed="11.66" duration="122.00" routeLength="1015.10" waitSteps="18" timeLoss="45.62" rerouteNo="0" devices="tripinfo_up_25" vType="typeNS" speedFactor="1.00" vaporized=""/>
    <tripinfo id="up_27" depart="66.00" departLane="53o_0" departPos="5.10" departSpeed="0.00" departDelay="5.00" arrival="185.00" arrivalLane="54i_0" arrivalPos="10.00" arrivalSpeed="11.21" duration="119.00" routeLength="1015.10" waitSteps="14" timeLoss="43.20" rerouteNo="0" devices="tripinfo_up_27" vType="typeNS" speedFactor="1.00" vaporized=""/>
    <tripinfo id="down_35" depart="94.00" departLane="54o_0" departPos="5.10" departSpeed="0.00" departDelay="6.00" arrival="185.00" arrivalLane="53i_0" arrivalPos="10.00" arrivalSpeed="11.64" duration="91.00" routeLength="1015.10" waitSteps="0" timeLoss="14.98" rerouteNo="0" devices="tripinfo_down_35" vType="typeNS" speedFactor="1.00" vaporized=""/>
    <tripinfo id="up_30" depart="71.00" departLane="53o_0" departPos="5.10" departSpeed="0.00" departDelay="2.00" arrival="187.00" arrivalLane="54i_0" arrivalPos="10.00" arrivalSpeed="11.28" duration="116.00" routeLength="1015.10" waitSteps="11" timeLoss="40.11" rerouteNo="0" devices="tripinfo_up_30" vType="typeNS" speedFactor="1.00" vaporized=""/>
    <tripinfo id="up_32" depart="76.00" departLane="53o_0" departPos="5.10" departSpeed="0.00" departDelay="3.00" arrival="189.00" arrivalLane="54i_0" arrivalPos="10.00" arrivalSpeed="11.84" duration="113.00" routeLength="1015.10" waitSteps="8" timeLoss="37.10" rerouteNo="0" devices="tripinfo_up_32" vType="typeNS" speedFactor="1.00" vaporized=""/>
    <tripinfo id="up_33" depart="81.00" departLane="53o_0" departPos="5.10" departSpeed="0.00" departDelay="3.00" arrival="191.00" arrivalLane="54i_0" arrivalPos="10.00" arrivalSpeed="11.39" duration="110.00" routeLength="1015.10" waitSteps="4" timeLoss="33.87" rerouteNo="0" devices="tripinfo_up_33" vType="typeNS" speedFactor="1.00" vaporized=""/>
    <tripinfo id="down_37" depart="101.00" departLane="54o_0" departPos="5.10" departSpeed="0.00" departDelay="7.00" arrival="191.00" arrivalLane="53i_0" arrivalPos="10.00" arrivalSpeed="11.28" duration="90.00" routeLength="1015.10" waitSteps="0" timeLoss="13.68" rerouteNo="0" devices="tripinfo_down_37" vType="typeNS" speedFactor="1.00" vaporized=""/>
    <tripinfo id="up_38" depart="94.00" departLane="53o_0" departPos="5.10" departSpeed="0.00" departDelay="0.00" arrival="193.00" arrivalLane="54i_0" arrivalPos="10.00" arrivalSpeed="11.72" duration="99.00" routeLength="1015.10" waitSteps="0" timeLoss="23.10" rerouteNo="0" devices="tripinfo_up_38" vType="typeNS" speedFactor="1.00" vaporized=""/>
    <tripinfo id="up_39" depart="100.00" departLane="53o_0" departPos="5.10" departSpeed="0.00" departDelay="4.00" arrival="195.00" arrivalLane="54i_0" arrivalPos="10.00" arrivalSpeed="11.63" duration="95.00" routeLength="1015.10" waitSteps="0" timeLoss="18.66" rerouteNo="0" devices="tripinfo_up_39" vType="typeNS" speedFactor="1.00" vaporized=""/>
    <tripinfo id="down_43" depart="106.00" departLane="54o_0" departPos="5.10" departSpeed="0.00" departDelay="3.00" arrival="196.00" arrivalLane="53i_0" arrivalPos="10.00" arrivalSpeed="11.50" duration="90.00" routeLength="1015.10" waitSteps="0" timeLoss="13.78" rerouteNo="0" devices="tripinfo_down_43" vType="typeNS" speedFactor="1.00" vaporized=""/>
    <tripinfo id="up_40" depart="106.00" departLane="53o_0" departPos="5.10" departSpeed="0.00" departDelay="9.00" arrival="198.00" arrivalLane="54i_0" arrivalPos="10.00" arrivalSpeed="11.56" duration="92.00" routeLength="1015.10" waitSteps="0" timeLoss="15.80" rerouteNo="0" devices="tripinfo_up_40" vType="typeNS" speedFactor="1.00" vaporized=""/>
    <tripinfo id="down_45" depart="111.00" departLane="54o_0" departPos="5.10" departSpeed="0.00" departDelay="3.00" arrival="202.00" arrivalLane="53i_0" arrivalPos="10.00" arrivalSpeed="11.60" duration="91.00" routeLength="1015.10" waitSteps="0" timeLoss="14.78" rerouteNo="0" devices="tripinfo_down_45" vType="typeNS" speedFactor="1.00" vaporized=""/>
    <tripinfo id="up_44" depart="111.00" departLane="53o_0" departPos="5.10" departSpeed="0.00" departDelay="7.00" arrival="203.00" arrivalLane="54i_0" arrivalPos="10.00" arrivalSpeed="10.99" duration="92.00" routeLength="1015.10" waitSteps="0" timeLoss="15.83" rerouteNo="0" devices="tripinfo_up_44" vType="typeNS" speedFactor="1.00" vaporized=""/>
    <tripinfo id="down_46" depart="116.00" departLane="54o_0" departPos="5.10" departSpeed="0.00" departDelay="7.00" arrival="208.00" arrivalLane="53i_0" arrivalPos="10.00" arrivalSpeed="11.25" duration="92.00" routeLength="1015.10" waitSteps="0" timeLoss="15.65" rerouteNo="0" devices="tripinfo_down_46" vType="typeNS" speedFactor="1.00" vaporized=""/>
    <tripinfo id="up_49" depart="117.00" departLane="53o_0" departPos="5.10" departSpeed="0.00" departDelay="3.00" arrival="209.00" arrivalLane="54i_0" arrivalPos="10.00" arrivalSpeed="11.59" duration="92.00" routeLength="1015.10" waitSteps="0" timeLoss="15.19" rerouteNo="0" devices="tripinfo_up_49" vType="typeNS" speedFactor="1.00" vaporized=""/>
    <tripinfo id="up_53" depart="122.00" departLane="53o_0" departPos="5.10" departSpeed="0.00" departDelay="3.00" arrival="213.00" arrivalLane="54i_0" arrivalPos="10.00" arrivalSpeed="11.34" duration="91.00" routeLength="1015.10" waitSteps="0" timeLoss="14.76" rerouteNo="0" devices="tripinfo_up_53" vType="typeNS" speedFactor="1.00" vaporized=""/>
    <tripinfo id="down_57" depart="129.00" departLane="54o_0" departPos="5.10" departSpeed="0.00" departDelay="0.00" arrival="220.00" arrivalLane="53i_0" arrivalPos="10.00" arrivalSpeed="11.41" duration="91.00" routeLength="1015.10" waitSteps="0" timeLoss="14.78" rerouteNo="0" devices="tripinfo_down_57" vType="typeNS" speedFactor="1.00" vaporized=""/>
    <tripinfo id="down_59" depart="134.00" departLane="54o_0" departPos="5.10" departSpeed="0.00" departDelay="3.00" arrival="226.00" arrivalLane="53i_0" arrivalPos="10.00" arrivalSpeed="11.59" duration="92.00" routeLength="1015.10" waitSteps="0" timeLoss="16.11" rerouteNo="0" devices="tripinfo_down_59" vType="typeNS" speedFactor="1.00" vaporized=""/>
    <tripinfo id="up_61" depart="136.00" departLane="53o_0" departPos="5.10" departSpeed="0.00" departDelay="0.00" arrival="227.00" arrivalLane="54i_0" arrivalPos="10.00" arrivalSpeed="11.86" duration="91.00" routeLength="1015.10" waitSteps="0" timeLoss="14.76" rerouteNo="0" devices="tripinfo_up_61" vType="typeNS" speedFactor="1.00" vaporized=""/>
    <tripinfo id="right_36" depart="92.00" departLane="51o_0" departPos="5.10" departSpeed="0.00" departDelay="0.00" arrival="236.00" arrivalLane="52i_0" arrivalPos="10.00" arrivalSpeed="11.73" duration="144.00" routeLength="1015.10" waitSteps="42" timeLoss="68.13" rerouteNo="0" devices="tripinfo_right_36" vType="typeWE" speedFactor="1.00" vaporized=""/>
    <tripinfo id="left_41" depart="100.00" departLane="52o_0" departPos="5.10" departSpeed="0.00" departDelay="0.00" arrival="236.00" arrivalLane="51i_0" arrivalPos="10.00" arrivalSpeed="11.49" duration="136.00" routeLength="1015.10" waitSteps="34" timeLoss="60.27" rerouteNo="0" devices="tripinfo_left_41" vType="typeWE" speedFactor="1.00" vaporized=""/>
    <tripinfo id="right_42" depart="102.00" departLane="51o_0" departPos="5.10" departSpeed="0.00" departDelay="0.00" arrival="238.00" arrivalLane="52i_0" arrivalPos="10.00" arrivalSpeed="10.87" duration="136.00" routeLength="1015.10" waitSteps="32" timeLoss="60.05" rerouteNo="0" devices="tripinfo_right_42" vType="typeWE" speedFactor="1.00" vaporized=""/>
    <tripinfo id="left_47" depart="112.00" departLane="52o_0" departPos="5.10" departSpeed="0.00" departDelay="0.00" arrival="239.00" arrivalLane="51i_0" arrivalPos="10.00" arrivalSpeed="11.32" duration="127.00" routeLength="1015.10" waitSteps="25" timeLoss="51.04" rerouteNo="0" devices="tripinfo_left_47" vType="typeWE" speedFactor="1.00" vaporized=""/>
    <tripinfo id="right_48" depart="114.00" departLane="51o_0" departPos="5.10" departSpeed="0.00" departDelay="0.00" arrival="241.00" arrivalLane="52i_0" arrivalPos="10.00" arrivalSpeed="11.35" duration="127.00" routeLength="1015.10" waitSteps="23" timeLoss="51.25" rerouteNo="0" devices="tripinfo_right_48" vType="typeWE" speedFactor="1.00" vaporized=""/>
    <tripinfo id="left_50" depart="121.00" departLane="52o_0" departPos="5.10" departSpeed="0.00" departDelay="6.00" arrival="241.00" arrivalLane="51i_0" arrivalPos="10.00" arrivalSpeed="11.53" duration="120.00" routeLength="1015.10" waitSteps="14" timeLoss="43.72" rerouteNo="0" devices="tripinfo_left_50" vType="typeWE" speedFactor="1.00" vaporized=""/>
    <tripinfo id="right_51" depart="123.00" departLane="51o_0" departPos="5.10" departSpeed="0.00" departDelay="7.00" arrival="243.00" arrivalLane="52i_0" arrivalPos="10.00" arrivalSpeed="11.45" duration="120.00" routeLength="1015.10" waitSteps="16" timeLoss="44.15" rerouteNo="0" devices="tripinfo_right_51" vType="typeWE" speedFactor="1.00" vaporized=""/>
    <tripinfo id="left_52" depart="127.00" departLane="52o_0" departPos="5.10" departSpeed="0.00" departDelay="10.00" arrival="243.00" arrivalLane="51i_0" arrivalPos="10.00" arrivalSpeed="11.75" duration="116.00" routeLength="1015.10" waitSteps="11" timeLoss="39.81" rerouteNo="0" devices="tripinfo_left_52" vType="typeWE" speedFactor="1.00" vaporized=""/>
    <tripinfo id="right_54" depart="128.00" departLane="51o_0" departPos="5.10" departSpeed="0.00" departDelay="8.00" arrival="245.00" arrivalLane="52i_0" arrivalPos="10.00" arrivalSpeed="11.62" duration="117.00" routeLength="1015.10" waitSteps="12" timeLoss="40.85" rerouteNo="0" devices="tripinfo_right_54" vType="typeWE" speedFactor="1.00" vaporized=""/>
    <tripinfo id="left_55" depart="132.00" departLane="52o_0" departPos="5.10" departSpeed="0.00" departDelay="7.00" arrival="245.00" arrivalLane="51i_0" arrivalPos="10.00" arrivalSpeed="11.34" duration="113.00" routeLength="1015.10" waitSteps="8" timeLoss="36.84" rerouteNo="0" devices="tripinfo_left_55" vType="typeWE" speedFactor="1.00" vaporized=""/>
    <tripinfo id="right_56" depart="133.00" departLane="51o_0" departPos="5.10" departSpeed="0.00" departDelay="7.00" arrival="247.00" arrivalLane="52i_0" arrivalPos="10.00" arrivalSpeed="11.67" duration="114.00" routeLength="1015.10" waitSteps="8" timeLoss="37.92" rerouteNo="0" devices="tripinfo_right_56" vType="typeWE" speedFactor="1.00" vaporized=""/>
    <tripinfo id="left_58" depart="137.00" departLane="52o_0" departPos="5.10" departSpeed="0.00" departDelay="6.00" arrival="247.00" arrivalLane="51i_0" arrivalPos="10.00" arrivalSpeed="11.62" duration="110.00" routeLength="1015.10" waitSteps="4" timeLoss="34.16" rerouteNo="0" devices="tripinfo_left_58" vType="typeWE" speedFactor="1.00" vaporized=""/>
    <tripinfo id="right_63" depart="139.00" departLane="51o_0" departPos="5.10" departSpeed="0.00" departDelay="0.00" arrival="249.00" arrivalLane="52i_0" arrivalPos="10.00" arrivalSpeed="11.62" duration="110.00" routeLength="1015.10" waitSteps="4" timeLoss="33.73" rerouteNo="0" devices="tripinfo_right_63" vType="typeWE" speedFactor="1.00" vaporized=""/>
    <tripinfo id="left_60" depart="142.00" departLane="52o_0" departPos="5.10" departSpeed="0.00" departDelay="8.00" arrival="249.00" arrivalLane="51i_0" arrivalPos="10.00" arrivalSpeed="11.53" duration="107.00" routeLength="1015.10" waitSteps="1" timeLoss="31.09" rerouteNo="0" devices="tripinfo_left_60" vType="typeWE" speedFactor="1.00" vaporized=""/>
    <tripinfo id="left_64" depart="147.00" departLane="52o_0" departPos="5.10" departSpeed="0.00" departDelay="4.00" arrival="251.00" arrivalLane="51i_0" arrivalPos="10.00" arrivalSpeed="11.38" duration="104.00" routeLength="1015.10" waitSteps="0" timeLoss="27.88" rerouteNo="0" devices="tripinfo_left_64" vType="typeWE" speedFactor="1.00" vaporized=""/>
    <tripinfo id="right_68" depart="167.00" departLane="51o_0" departPos="5.10" departSpeed="0.00" departDelay="0.00" arrival="259.00" arrivalLane="52i_0" arrivalPos="10.00" arrivalSpeed="11.56" duration="92.00" routeLength="1015.10" waitSteps="0" timeLoss="15.73" rerouteNo="0" devices="tripinfo_right_68" vType="typeWE" speedFactor="1.00" vaporized=""/>
    <tripinfo id="left_72" depart="175.00" departLane="52o_0" departPos="5.10" departSpeed="0.00" departDelay="0.00" arrival="266.00" arrivalLane="51i_0" arrivalPos="10.00" arrivalSpeed="11.51" duration="91.00" routeLength="1015.10" waitSteps="0" timeLoss="15.07" rerouteNo="0" devices="tripinfo_left_72" vType="typeWE" speedFactor="1.00" vaporized=""/>
    <tripinfo id="left_73" depart="180.00" departLane="52o_0" departPos="5.10" departSpeed="0.00" departDelay="4.00" arrival="271.00" arrivalLane="51i_0" arrivalPos="10.00" arrivalSpeed="11.28" duration="91.00" routeLength="1015.10" waitSteps="0" timeLoss="14.69" rerouteNo="0" devices="tripinfo_left_73" vType="typeWE" speedFactor="1.00" vaporized=""/>
    <tripinfo id="up_62" depart="141.00" departLane="53o_0" departPos="5.10" departSpeed="0.00" departDelay="4.00" arrival="296.00" arrivalLane="54i_0" arrivalPos="10.00" arrivalSpeed="11.66" duration="155.00" routeLength="1015.10" waitSteps="53" timeLoss="78.86" rerouteNo="0" devices="tripinfo_up_62" vType="typeNS" speedFactor="1.00" vaporized=""/>
    <tripinfo id="down_67" depart="158.00" departLane="54o_0" departPos="5.10" departSpeed="0.00" departDelay="0.00" arrival="297.00" arrivalLane="53i_0" arrivalPos="10.00" arrivalSpeed="11.70" duration="139.00" routeLength="1015.10" waitSteps="36" timeLoss="62.70" rerouteNo="0" devices="tripinfo_down_67" vType="typeNS" speedFactor="1.00" vaporized=""/>
    <tripinfo id="down_69" depart="168.00" departLane="54o_0" departPos="5.10" departSpeed="0.00" departDelay="0.00" arrival="299.00" arrivalLane="53i_0" arrivalPos="10.00" arrivalSpeed="11.31" duration="131.00" routeLength="1015.10" waitSteps="28" timeLoss="54.72" rerouteNo="0" devices="tripinfo_down_69" vType="typeNS" speedFactor="1.00" vaporized=""/>
    <tripinfo id="up_65" depart="147.00" departLane="53o_0" departPos="5.10" departSpeed="0.00" departDelay="0.00" arrival="300.00" arrivalLane="54i_0" arrivalPos="10.00" arrivalSpeed="11.52" duration="153.00" routeLength="1015.10" waitSteps="48" timeLoss="76.47" rerouteNo="0" devices="tripinfo_up_65" vType="typeNS" speedFactor="1.00" vaporized=""/>
    <tripinfo id="up_66" depart="152.00" departLane="53o_0" departPos="5.10" departSpeed="0.00" departDelay="2.00" arrival="301.00" arrivalLane="54i_0" arrivalPos="10.00" arrivalSpeed="11.09" duration="149.00" routeLength="1015.10" waitSteps="45" timeLoss="72.99" rerouteNo="0" devices="tripinfo_up_66" vType="typeNS" speedFactor="1.00" vaporized=""/>
    <tripinfo id="down_75" depart="183.00" departLane="54o_0" departPos="5.10" departSpeed="0.00" departDelay="3.00" arrival="301.00" arrivalLane="53i_0" arrivalPos="10.00" arrivalSpeed="10.79" duration="118.00" routeLength="1015.10" waitSteps="14" timeLoss="41.97" rerouteNo="0" devices="tripinfo_down_75" vType="typeNS" speedFactor="1.00" vaporized=""/>
    <tripinfo id="up_70" depart="170.00" departLane="53o_0" departPos="5.10" departSpeed="0.00" departDelay="0.00" arrival="303.00" arrivalLane="54i_0" arrivalPos="10.00" arrivalSpeed="11.69" duration="133.00" routeLength="1015.10" waitSteps="30" timeLoss="57.17" rerouteNo="0" devices="tripinfo_up_70" vType="typeNS" speedFactor="1.00" vaporized=""/>
    <tripinfo id="down_76" depart="191.00" departLane="54o_0" departPos="5.10" departSpeed="0.00" departDelay="1.00" arrival="303.00" arrivalLane="53i_0" arrivalPos="10.00" arrivalSpeed="11.21" duration="112.00" routeLength="1015.10" waitSteps="7" timeLoss="36.10" rerouteNo="0" devices="tripinfo_down_76" vType="typeNS" speedFactor="1.00" vaporized=""/>
    <tripinfo id="up_71" depart="176.00" departLane="53o_0" departPos="5.10" departSpeed="0.00" departDelay="4.00" arrival="305.00" arrivalLane="54i_0" arrivalPos="10.00" arrivalSpeed="11.44" duration="129.00" routeLength="1015.10" waitSteps="23" timeLoss="52.93" rerouteNo="0" devices="tripinfo_up_71" vType="typeNS" speedFactor="1.00" vaporized=""/>
    <tripinfo id="down_77" depart="198.00" departLane="54o_0" departPos="5.10" departSpeed="0.00" departDelay="5.00" arrival="305.00" arrivalLane="53i_0" arrivalPos="10.00" arrivalSpeed="11.56" duration="107.00" routeLength="1015.10" waitSteps="1" timeLoss="30.96" rerouteNo="0" devices="tripinfo_down_77" vType="typeNS" speedFactor="1.00" vaporized=""/>
    <tripinfo id="up_74" depart="182.00" departLane="53o_0" departPos="5.10" departSpeed="0.00" departDelay="5.00" arrival="307.00" arrivalLane="54i_0" arrivalPos="10.00" arrivalSpeed="11.37" duration="125.00" routeLength="1015.10" waitSteps="20" timeLoss="48.82" rerouteNo="0" devices="tripinfo_up_74" vType="typeNS" speedFactor="1.00" vaporized=""/>
    <tripinfo id="down_80" depart="203.00" departLane="54o_0" departPos="5.10" departSpeed="0.00" departDelay="5.00" arrival="308.00" arrivalLane="53i_0" arrivalPos="10.00" arrivalSpeed="11.48" duration="105.00" routeLength="1015.10" waitSteps="0" timeLoss="28.63" rerouteNo="0" devices="tripinfo_down_80" vType="typeNS" speedFactor="1.00" vaporized=""/>
    <tripinfo id="up_78" depart="193.00" departLane="53o_0" departPos="5.10" departSpeed="0.00" departDelay="0.00" arrival="309.00" arrivalLane="54i_0" arrivalPos="10.00" arrivalSpeed="11.52" duration="116.00" routeLength="1015.10" waitSteps="10" timeLoss="39.54" rerouteNo="0" devices="tripinfo_up_78" vType="typeNS" speedFactor="1.00" vaporized=""/>
    <tripinfo id="down_81" depart="209.00" departLane="54o_0" departPos="5.10" departSpeed="0.00" departDelay="9.00" arrival="310.00" arrivalLane="53i_0" arrivalPos="10.00" arrivalSpeed="11.31" duration="101.00" routeLength="1015.10" waitSteps="0" timeLoss="25.05" rerouteNo="0" devices="tripinfo_down_81" vType="typeNS" speedFactor="1.00" vaporized=""/>