<?xml version="1.0" encoding="UTF-8"?>

<!-- generated on Mon Apr 30 16:25:43 2018 by SUMO Version 0.32.0
<?xml version="1.0" encoding="UTF-8"?>

<configuration xmlns:xsi="http://www.w3.org/2001/XMLSchema-instance" xsi:noNamespaceSchemaLocation="http://sumo.dlr.de/xsd/sumoConfiguration.xsd">

    <input>
        <net-file value="data/cross.net.xml"/>
        <route-files value="data/cross.rou.xml"/>
        <additional-files value="data/cross.det.xml"/>
    </input>

    <output>
        <summary-output value="data/cross.out"/>
        <tripinfo-output value="output/tripinfo290.xml"/>
    </output>

    <time>
        <begin value="0"/>
    </time>

    <report>
        <verbose value="true"/>
        <duration-log.statistics value="true"/>
        <no-step-log value="true"/>
    </report>

    <traci_server>
        <remote-port value="33322"/>
    </traci_server>

</configuration>
-->

<tripinfos xmlns:xsi="http://www.w3.org/2001/XMLSchema-instance" xsi:noNamespaceSchemaLocation="http://sumo.dlr.de/xsd/tripinfo_file.xsd">
    <tripinfo id="up_1" depart="5.00" departLane="53o_0" departPos="5.10" departSpeed="0.00" departDelay="0.00" arrival="96.00" arrivalLane="54i_0" arrivalPos="10.00" arrivalSpeed="11.33" duration="91.00" routeLength="1015.10" waitSteps="0" timeLoss="14.45" rerouteNo="0" devices="tripinfo_up_1" vType="typeNS" speedFactor="1.00" vaporized=""/>
    <tripinfo id="up_3" depart="13.00" departLane="53o_0" departPos="5.10" departSpeed="0.00" departDelay="0.00" arrival="104.00" arrivalLane="54i_0" arrivalPos="10.00" arrivalSpeed="11.45" duration="91.00" routeLength="1015.10" waitSteps="0" timeLoss="14.84" rerouteNo="0" devices="tripinfo_up_3" vType="typeNS" speedFactor="1.00" vaporized=""/>
    <tripinfo id="down_2" depart="13.00" departLane="54o_0" departPos="5.10" departSpeed="0.00" departDelay="0.00" arrival="104.00" arrivalLane="53i_0" arrivalPos="10.00" arrivalSpeed="11.31" duration="91.00" routeLength="1015.10" waitSteps="0" timeLoss="14.34" rerouteNo="0" devices="tripinfo_down_2" vType="typeNS" speedFactor="1.00" vaporized=""/>
    <tripinfo id="right_5" depart="17.00" departLane="51o_0" departPos="5.10" departSpeed="0.00" departDelay="0.00" arrival="108.00" arrivalLane="52i_0" arrivalPos="10.00" arrivalSpeed="11.06" duration="91.00" routeLength="1015.10" waitSteps="0" timeLoss="14.88" rerouteNo="0" devices="tripinfo_right_5" vType="typeWE" speedFactor="1.00" vaporized=""/>
    <tripinfo id="left_0" depart="1.00" departLane="52o_0" departPos="5.10" departSpeed="0.00" departDelay="0.00" arrival="116.00" arrivalLane="51i_0" arrivalPos="10.00" arrivalSpeed="11.60" duration="115.00" routeLength="1015.10" waitSteps="13" timeLoss="39.04" rerouteNo="0" devices="tripinfo_left_0" vType="typeWE" speedFactor="1.00" vaporized=""/>
    <tripinfo id="left_8" depart="27.00" departLane="52o_0" departPos="5.10" departSpeed="0.00" departDelay="0.00" arrival="119.00" arrivalLane="51i_0" arrivalPos="10.00" arrivalSpeed="11.38" duration="92.00" routeLength="1015.10" waitSteps="0" timeLoss="16.08" rerouteNo="0" devices="tripinfo_left_8" vType="typeWE" speedFactor="1.00" vaporized=""/>
    <tripinfo id="right_11" depart="29.00" departLane="51o_0" departPos="5.10" departSpeed="0.00" departDelay="0.00" arrival="120.00" arrivalLane="52i_0" arrivalPos="10.00" arrivalSpeed="11.65" duration="91.00" routeLength="1015.10" waitSteps="0" timeLoss="15.02" rerouteNo="0" devices="tripinfo_right_11" vType="typeWE" speedFactor="1.00" vaporized=""/>
    <tripinfo id="right_14" depart="44.00" departLane="51o_0" departPos="5.10" departSpeed="0.00" departDelay="0.00" arrival="136.00" arrivalLane="52i_0" arrivalPos="10.00" arrivalSpeed="11.29" duration="92.00" routeLength="1015.10" waitSteps="0" timeLoss="15.79" rerouteNo="0" devices="tripinfo_right_14" vType="typeWE" speedFactor="1.00" vaporized=""/>
    <tripinfo id="right_19" depart="63.00" departLane="51o_0" departPos="5.10" departSpeed="0.00" departDelay="0.00" arrival="154.00" arrivalLane="52i_0" arrivalPos="10.00" arrivalSpeed="11.31" duration="91.00" routeLength="1015.10" waitSteps="0" timeLoss="14.91" rerouteNo="0" devices="tripinfo_right_19" vType="typeWE" speedFactor="1.00" vaporized=""/>
    <tripinfo id="right_20" depart="68.00" departLane="51o_0" departPos="5.10" departSpeed="0.00" departDelay="0.00" arrival="159.00" arrivalLane="52i_0" arrivalPos="10.00" arrivalSpeed="11.42" duration="91.00" routeLength="1015.10" waitSteps="0" timeLoss="14.82" rerouteNo="0" devices="tripinfo_right_20" vType="typeWE" speedFactor="1.00" vaporized=""/>
    <tripinfo id="up_4" depart="18.00" departLane="53o_0" departPos="5.10" departSpeed="0.00" departDelay="2.00" arrival="177.00" arrivalLane="54i_0" arrivalPos="10.00" arrivalSpeed="11.76" duration="159.00" routeLength="1015.10" waitSteps="56" timeLoss="82.92" rerouteNo="0" devices="tripinfo_up_4" vType="typeNS" speedFactor="1.00" vaporized=""/>
    <tripinfo id="down_6" depart="19.00" departLane="54o_0" departPos="5.10" departSpeed="0.00" departDelay="0.00" arrival="177.00" arrivalLane="53i_0" arrivalPos="10.00" arrivalSpeed="11.58" duration="158.00" routeLength="1015.10" waitSteps="54" timeLoss="81.85" rerouteNo="0" devices="tripinfo_down_6" vType="typeNS" speedFactor="1.00" vaporized=""/>
    <tripinfo id="up_7" depart="23.00" departLane="53o_0" departPos="5.10" departSpeed="0.00" departDelay="2.00" arrival="179.00" arrivalLane="54i_0" arrivalPos="10.00" arrivalSpeed="11.73" duration="156.00" routeLength="1015.10" waitSteps="52" timeLoss="79.78" rerouteNo="0" devices="tripinfo_up_7" vType="typeNS" speedFactor="1.00" vaporized=""/>
    <tripinfo id="down_9" depart="28.00" departLane="54o_0" departPos="5.10" departSpeed="0.00" departDelay="0.00" arrival="179.00" arrivalLane="53i_0" arrivalPos="10.00" arrivalSpeed="11.58" duration="151.00" routeLength="1015.10" waitSteps="49" timeLoss="74.55" rerouteNo="0" devices="tripinfo_down_9" vType="typeNS" speedFactor="1.00" vaporized=""/>
    <tripinfo id="down_13" depart="42.00" departLane="54o_0" departPos="5.10" departSpeed="0.00" departDelay="0.00" arrival="181.00" arrivalLane="53i_0" arrivalPos="10.00" arrivalSpeed="11.78" duration="139.00" routeLength="1015.10" waitSteps="36" timeLoss="62.47" rerouteNo="0" devices="tripinfo_down_13" vType="typeNS" speedFactor="1.00" vaporized=""/>
    <tripinfo id="up_10" depart="28.00" departLane="53o_0" departPos="5.10" departSpeed="0.00" departDelay="0.00" arrival="182.00" arrivalLane="54i_0" arrivalPos="10.00" arrivalSpeed="11.43" duration="154.00" routeLength="1015.10" waitSteps="49" timeLoss="77.70" rerouteNo="0" devices="tripinfo_up_10" vType="typeNS" speedFactor="1.00" vaporized=""/>
    <tripinfo id="down_15" depart="47.00" departLane="54o_0" departPos="5.10" departSpeed="0.00" departDelay="2.00" arrival="183.00" arrivalLane="53i_0" arrivalPos="10.00" arrivalSpeed="11.52" duration="136.00" routeLength="1015.10" waitSteps="30" timeLoss="59.62" rerouteNo="0" devices="tripinfo_down_15" vType="typeNS" speedFactor="1.00" vaporized=""/>
    <tripinfo id="up_12" depart="35.00" departLane="53o_0" departPos="5.10" departSpeed="0.00" departDelay="0.00" arrival="184.00" arrivalLane="54i_0" arrivalPos="10.00" arrivalSpeed="11.28" duration="149.00" routeLength="1015.10" waitSteps="45" timeLoss="72.65" rerouteNo="0" devices="tripinfo_up_12" vType="typeNS" speedFactor="1.00" vaporized=""/>
    <tripinfo id="down_17" depart="52.00" departLane="54o_0" departPos="5.10" departSpeed="0.00" departDelay="2.00" arrival="185.00" arrivalLane="53i_0" arrivalPos="10.00" arrivalSpeed="11.43" duration="133.00" routeLength="1015.10" waitSteps="28" timeLoss="56.56" rerouteNo="0" devices="tripinfo_down_17" vType="typeNS" speedFactor="1.00" vaporized=""/>
    <tripinfo id="up_16" depart="48.00" departLane="53o_0" departPos="5.10" departSpeed="0.00" departDelay="0.00" arrival="186.00" arrivalLane="54i_0" arrivalPos="10.00" arrivalSpeed="11.42" duration="138.00" routeLength="1015.10" waitSteps="31" timeLoss="61.72" rerouteNo="0" devices="tripinfo_up_16" vType="typeNS" speedFactor="1.00" vaporized=""/>
    <tripinfo id="down_23" depart="81.00" departLane="54o_0" departPos="5.10" departSpeed="0.00" departDelay="0.00" arrival="187.00" arrivalLane="53i_0" arrivalPos="10.00" arrivalSpeed="11.50" duration="106.00" routeLength="1015.10" waitSteps="1" timeLoss="29.55" rerouteNo="0" devices="tripinfo_down_23" vType="typeNS" speedFactor="1.00" vaporized=""/>
    <tripinfo id="up_18" depart="56.00" departLane="53o_0" departPos="5.10" departSpeed="0.00" departDelay="0.00" arrival="188.00" arrivalLane="54i_0" arrivalPos="10.00" arrivalSpeed="11.70" duration="132.00" routeLength="1015.10" waitSteps="25" timeLoss="55.53" rerouteNo="0" devices="tripinfo_up_18" vType="typeNS" speedFactor="1.00" vaporized=""/>
    <tripinfo id="down_24" depart="86.00" departLane="54o_0" departPos="5.10" departSpeed="0.00" departDelay="4.00" arrival="189.00" arrivalLane="53i_0" arrivalPos="10.00" arrivalSpeed="11.52" duration="103.00" routeLength="1015.10" waitSteps="0" timeLoss="26.82" rerouteNo="0" devices="tripinfo_down_24" vType="typeNS" speedFactor="1.00" vaporized=""/>
    <tripinfo id="up_21" depart="75.00" departLane="53o_0" departPos="5.10" departSpeed="0.00" departDelay="0.00" arrival="190.00" arrivalLane="54i_0" arrivalPos="10.00" arrivalSpeed="11.63" duration="115.00" routeLength="1015.10" waitSteps="6" timeLoss="38.26" rerouteNo="0" devices="tripinfo_up_21" vType="typeNS" speedFactor="1.00" vaporized=""/>
    <tripinfo id="down_26" depart="96.00" departLane="54o_0" departPos="5.10" departSpeed="0.00" departDelay="2.00" arrival="191.00" arrivalLane="53i_0" arrivalPos="10.00" arrivalSpeed="11.45" duration="95.00" routeLength="1015.10" waitSteps="0" timeLoss="18.59" rerouteNo="0" devices="tripinfo_down_26" vType="typeNS" speedFactor="1.00" vaporized=""/>
    <tripinfo id="down_31" depart="104.00" departLane="54o_0" departPos="5.10" departSpeed="0.00" departDelay="0.00" arrival="195.00" arrivalLane="53i_0" arrivalPos="10.00" arrivalSpeed="11.34" duration="91.00" routeLength="1015.10" waitSteps="0" timeLoss="14.76" rerouteNo="0" devices="tripinfo_down_31" vType="typeNS" speedFactor="1.00" vaporized=""/>
    <tripinfo id="down_32" depart="109.00" departLane="54o_0" departPos="5.10" departSpeed="0.00" departDelay="4.00" arrival="200.00" arrivalLane="53i_0" arrivalPos="10.00" arrivalSpeed="11.28" duration="91.00" routeLength="1015.10" waitSteps="0" timeLoss="14.61" rerouteNo="0" devices="tripinfo_down_32" vType="typeNS" speedFactor="1.00" vaporized=""/>
    <tripinfo id="up_33" depart="114.00" departLane="53o_0" departPos="5.10" departSpeed="0.00" departDelay="0.00" arrival="206.00" arrivalLane="54i_0" arrivalPos="10.00" arrivalSpeed="11.23" duration="92.00" routeLength="1015.10" waitSteps="0" timeLoss="15.24" rerouteNo="0" devices="tripinfo_up_33" vType="typeNS" speedFactor="1.00" vaporized=""/>
    <tripinfo id="down_34" depart="120.00" departLane="54o_0" departPos="5.10" departSpeed="0.00" departDelay="0.00" arrival="211.00" arrivalLane="53i_0" arrivalPos="10.00" arrivalSpeed="11.31" duration="91.00" routeLength="1015.10" waitSteps="0" timeLoss="14.29" rerouteNo="0" devices="tripinfo_down_34" vType="typeNS" speedFactor="1.00" vaporized=""/>
    <tripinfo id="up_36" depart="124.00" departLane="53o_0" departPos="5.10" departSpeed="0.00" departDelay="0.00" arrival="215.00" arrivalLane="54i_0" arrivalPos="10.00" arrivalSpeed="11.46" duration="91.00" routeLength="1015.10" waitSteps="0" timeLoss="14.71" rerouteNo="0" devices="tripinfo_up_36" vType="typeNS" speedFactor="1.00" vaporized=""/>
    <tripinfo id="down_39" depart="129.00" departLane="54o_0" departPos="5.10" departSpeed="0.00" departDelay="0.00" arrival="219.00" arrivalLane="53i_0" arrivalPos="10.00" arrivalSpeed="11.42" duration="90.00" routeLength="1015.10" waitSteps="0" timeLoss="14.03" rerouteNo="0" devices="tripinfo_down_39" vType="typeNS" speedFactor="1.00" vaporized=""/>
    <tripinfo id="up_40" depart="129.00" departLane="53o_0" departPos="5.10" departSpeed="0.00" departDelay="0.00" arrival="221.00" arrivalLane="54i_0" arrivalPos="10.00" arrivalSpeed="11.29" duration="92.00" routeLength="1015.10" waitSteps="0" timeLoss="15.48" rerouteNo="0" devices="tripinfo_up_40" vType="typeNS" speedFactor="1.00" vaporized=""/>
    <tripinfo id="up_41" depart="134.00" departLane="53o_0" departPos="5.10" departSpeed="0.00" departDelay="0.00" arrival="226.00" arrivalLane="54i_0" arrivalPos="10.00" arrivalSpeed="11.50" duration="92.00" routeLength="1015.10" waitSteps="0" timeLoss="15.57" rerouteNo="0" devices="tripinfo_up_41" vType="typeNS" speedFactor="1.00" vaporized=""/>
    <tripinfo id="down_42" depart="135.00" departLane="54o_0" departPos="5.10" departSpeed="0.00" departDelay="0.00" arrival="227.00" arrivalLane="53i_0" arrivalPos="10.00" arrivalSpeed="11.29" duration="92.00" routeLength="1015.10" waitSteps="0" timeLoss="15.49" rerouteNo="0" devices="tripinfo_down_42" vType="typeNS" speedFactor="1.00" vaporized=""/>
    <tripinfo id="right_22" depart="77.00" departLane="51o_0" departPos="5.10" departSpeed="0.00" departDelay="0.00" arrival="236.00" arrivalLane="52i_0" arrivalPos="10.00" arrivalSpeed="11.52" duration="159.00" routeLength="1015.10" waitSteps="60" timeLoss="83.18" rerouteNo="0" devices="tripinfo_right_22" vType="typeWE" speedFactor="1.00" vaporized=""/>
    <tripinfo id="left_25" depart="87.00" departLane="52o_0" departPos="5.10" departSpeed="0.00" departDelay="0.00" arrival="236.00" arrivalLane="51i_0" arrivalPos="10.00" arrivalSpeed="11.35" duration="149.00" routeLength="1015.10" waitSteps="49" timeLoss="72.64" rerouteNo="0" devices="tripinfo_left_25" vType="typeWE" speedFactor="1.00" vaporized=""/>
    <tripinfo id="right_27" depart="95.00" departLane="51o_0" departPos="5.10" departSpeed="0.00" departDelay="0.00" arrival="238.00" arrivalLane="52i_0" arrivalPos="10.00" arrivalSpeed="11.48" duration="143.00" routeLength="1015.10" waitSteps="41" timeLoss="67.22" rerouteNo="0" devices="tripinfo_right_27" vType="typeWE" speedFactor="1.00" vaporized=""/>
    <tripinfo id="left_28" depart="98.00" departLane="52o_0" departPos="5.10" departSpeed="0.00" departDelay="0.00" arrival="239.00" arrivalLane="51i_0" arrivalPos="10.00" arrivalSpeed="11.29" duration="141.00" routeLength="1015.10" waitSteps="39" timeLoss="64.36" rerouteNo="0" devices="tripinfo_left_28" vType="typeWE" speedFactor="1.00" vaporized=""/>
    <tripinfo id="right_30" depart="104.00" departLane="51o_0" departPos="5.10" departSpeed="0.00" departDelay="0.00" arrival="241.00" arrivalLane="52i_0" arrivalPos="10.00" arrivalSpeed="11.30" duration="137.00" routeLength="1015.10" waitSteps="33" timeLoss="60.52" rerouteNo="0" devices="tripinfo_right_30" vType="typeWE" speedFactor="1.00" vaporized=""/>
    <tripinfo id="left_29" depart="103.00" departLane="52o_0" departPos="5.10" departSpeed="0.00" departDelay="0.00" arrival="241.00" arrivalLane="51i_0" arrivalPos="10.00" arrivalSpeed="11.76" duration="138.00" routeLength="1015.10" waitSteps="35" timeLoss="61.87" rerouteNo="0" devices="tripinfo_left_29" vType="typeWE" speedFactor="1.00" vaporized=""/>
    <tripinfo id="right_35" depart="123.00" departLane="51o_0" departPos="5.10" departSpeed="0.00" departDelay="0.00" arrival="243.00" arrivalLane="52i_0" arrivalPos="10.00" arrivalSpeed="11.82" duration="120.00" routeLength="1015.10" waitSteps="15" timeLoss="43.49" rerouteNo="0" devices="tripinfo_right_35" vType="typeWE" speedFactor="1.00" vaporized=""/>
    <tripinfo id="left_38" depart="128.00" departLane="52o_0" departPos="5.10" departSpeed="0.00" departDelay="0.00" arrival="243.00" arrivalLane="51i_0" arrivalPos="10.00" arrivalSpeed="11.53" duration="115.00" routeLength="1015.10" waitSteps="10" timeLoss="39.03" rerouteNo="0" devices="tripinfo_left_38" vType="typeWE" speedFactor="1.00" vaporized=""/>
    <tripinfo id="right_37" depart="128.00" departLane="51o_0" departPos="5.10" departSpeed="0.00" departDelay="1.00" arrival="245.00" arrivalLane="52i_0" arrivalPos="10.00" arrivalSpeed="11.54" duration="117.00" routeLength="1015.10" waitSteps="11" timeLoss="40.41" rerouteNo="0" devices="tripinfo_right_37" vType="typeWE" speedFactor="1.00" vaporized=""/>
    <tripinfo id="right_43" depart="136.00" departLane="51o_0" departPos="5.10" departSpeed="0.00" departDelay="0.00" arrival="247.00" arrivalLane="52i_0" arrivalPos="10.00" arrivalSpeed="11.35" duration="111.00" routeLength="1015.10" waitSteps="6" timeLoss="34.34" rerouteNo="0" devices="tripinfo_right_43" vType="typeWE" speedFactor="1.00" vaporized=""/>
    <tripinfo id="right_45" depart="147.00" departLane="51o_0" departPos="5.10" departSpeed="0.00" departDelay="0.00" arrival="249.00" arrivalLane="52i_0" arrivalPos="10.00" arrivalSpeed="11.68" duration="102.00" routeLength="1015.10" waitSteps="0" timeLoss="25.84" rerouteNo="0" devices="tripinfo_right_45" vType="typeWE" speedFactor="1.00" vaporized=""/>
    <tripinfo id="right_46" depart="154.00" departLane="51o_0" departPos="5.10" departSpeed="0.00" departDelay="0.00" arrival="251.00" arrivalLane="52i_0" arrivalPos="10.00" arrivalSpeed="11.66" duration="97.00" routeLength="1015.10" waitSteps="0" timeLoss="20.68" rerouteNo="0" devices="tripinfo_right_46" vType="typeWE" speedFactor="1.00" vaporized=""/>
    <tripinfo id="left_48" depart="165.00" departLane="52o_0" departPos="5.10" departSpeed="0.00" departDelay="0.00" arrival="256.00" arrivalLane="51i_0" arrivalPos="10.00" arrivalSpeed="11.46" duration="91.00" routeLength="1015.10" waitSteps="0" timeLoss="14.71" rerouteNo="0" devices="tripinfo_left_48" vType="typeWE" speedFactor="1.00" vaporized=""/>
    <tripinfo id="right_49" depart="167.00" departLane="51o_0" departPos="5.10" departSpeed="0.00" departDelay="0.00" arrival="259.00" arrivalLane="52i_0" arrivalPos="10.00" arrivalSpeed="11.48" duration="92.00" routeLength="1015.10" waitSteps="0" timeLoss="15.21" rerouteNo="0" devices="tripinfo_right_49" vType="typeWE" speedFactor="1.00" vaporized=""/>
    <tripinfo id="right_50" depart="172.00" departLane="51o_0" departPos="5.10" departSpeed="0.00" departDelay="3.00" arrival="263.00" arrivalLane="52i_0" arrivalPos="10.00" arrivalSpeed="11.72" duration="91.00" routeLength="1015.10" waitSteps="0" timeLoss="14.67" rerouteNo="0" devices="tripinfo_right_50" vType="typeWE" speedFactor="1.00" vaporized=""/>
    <tripinfo id="right_52" depart="177.00" departLane="51o_0" departPos="5.10" departSpeed="0.00" departDelay="4.00" arrival="269.00" arrivalLane="52i_0" arrivalPos="10.00" arrivalSpeed="11.77" duration="92.00" routeLength="1015.10" waitSteps="0" timeLoss="15.30" rerouteNo="0" devices="tripinfo_right_52" vType="typeWE" speedFactor="1.00" vaporized=""/>
    <tripinfo id="right_54" depart="182.00" departLane="51o_0" departPos="5.10" departSpeed="0.00" departDelay="7.00" arrival="273.00" arrivalLane="52i_0" arrivalPos="10.00" arrivalSpeed="11.50" duration="91.00" routeLength="1015.10" waitSteps="0" timeLoss="14.95" rerouteNo="0" devices="tripinfo_right_54" vType="typeWE" speedFactor="1.00" vaporized=""/>
    <tripinfo id="left_57" depart="186.00" departLane="52o_0" departPos="5.10" departSpeed="0.00" departDelay="0.00" arrival="277.00" arrivalLane="51i_0" arrivalPos="10.00" arrivalSpeed="11.44" duration="91.00" routeLength="1015.10" waitSteps="0" timeLoss="14.26" rerouteNo="0" devices="tripinfo_left_57" vType="typeWE" speedFactor="1.00" vaporized=""/>
    <tripinfo id="right_58" depart="188.00" departLane="51o_0" departPos="5.10" departSpeed="0.00" departDelay="0.00" arrival="280.00" arrivalLane="52i_0" arrivalPos="10.00" arrivalSpeed="11.19" duration="92.00" routeLength="1015.10" waitSteps="0" timeLoss="15.30" rerouteNo="0" devices="tripinfo_right_58" vType="typeWE" speedFactor="1.00" vaporized=""/>
    <tripinfo id="left_59" depart="191.00" departLane="52o_0" departPos="5.10" departSpeed="0.00" departDelay="1.00" arrival="283.00" arrivalLane="51i_0" arrivalPos="10.00" arrivalSpeed="11.58" duration="92.00" routeLength="1015.10" waitSteps="0" timeLoss="15.20" rerouteNo="0" devices="tripinfo_left_59" vType="typeWE" speedFactor="1.00" vaporized=""/>
    <tripinfo id="right_60" depart="196.00" departLane="51o_0" departPos="5.10" departSpeed="0.00" departDelay="0.00" arrival="287.00" arrivalLane="52i_0" arrivalPos="10.00" arrivalSpeed="11.70" duration="91.00" routeLength="1015.10" waitSteps="0" timeLoss="15.00" rerouteNo="0" devices="tripinfo_right_60" vType="typeWE" speedFactor="1.00" vaporized=""/>
    <tripinfo id="up_47" depart="156.00" departLane="53o_0" departPos="5.10" departSpeed="0.00" departDelay="0.00" arrival="296.00" arrivalLane="54i_0" arrivalPos="10.00" arrivalSpeed="11.66" duration="140.00" routeLength="1015.10" waitSteps="37" timeLoss="63.66" rerouteNo="0" devices="tripinfo_up_47" vType="typeNS" speedFactor="1.00" vaporized=""/>
    <tripinfo id="down_44" depart="140.00" departLane="54o_0" departPos="5.10" departSpeed="0.00" departDelay="1.00" arrival="296.00" arrivalLane="53i_0" arrivalPos="10.00" arrivalSpeed="11.55" duration="156.00" routeLength="1015.10" waitSteps="53" timeLoss="80.20" rerouteNo="0" devices="tripinfo_down_44" vType="typeNS" speedFactor="1.00" vaporized=""/>
    <tripinfo id="up_55" depart="187.00" departLane="53o_0" departPos="5.10" departSpeed="0.00" departDelay="10.00" arrival="298.00" arrivalLane="54i_0" arrivalPos="10.00" arrivalSpeed="11.27" duration="111.00" routeLength="1015.10" waitSteps="8" timeLoss="35.15" rerouteNo="0" devices="tripinfo_up_55" vType="typeNS" speedFactor="1.00" vaporized=""/>
    <tripinfo id="down_51" depart="172.00" departLane="54o_0" departPos="5.10" departSpeed="0.00" departDelay="0.00" arrival="298.00" arrivalLane="53i_0" arrivalPos="10.00" arrivalSpeed="11.51" duration="126.00" routeLength="1015.10" waitSteps="23" timeLoss="50.09" rerouteNo="0" devices="tripinfo_down_51" vType="typeNS" speedFactor="1.00" vaporized=""/>
    <tripinfo id="down_53" depart="179.00" departLane="54o_0" departPos="5.10" departSpeed="0.00" departDelay="6.00" arrival="300.00" arrivalLane="53i_0" arrivalPos="10.00" arrivalSpeed="11.30" duration="121.00" routeLength="1015.10" waitSteps="17" timeLoss="44.91" rerouteNo="0" devices="tripinfo_down_53" vType="typeNS" speedFactor="1.00" vaporized=""/>
    <tripinfo id="down_56" depart="190.00" departLane="54o_0" departPos="5.10" departSpeed="0.00" departDelay="10.00" arrival="302.00" arrivalLane="53i_0" arrivalPos="10.00" arrivalSpeed="11.71" duration="112.00" routeLength="1015.10" waitSteps="8" timeLoss="35.62" rerouteNo="0" devices="tripinfo_down_56" vType="typeNS" speedFactor="1.00" vaporized=""/>
    <tripinfo id="down_62" depart="201.00" departLane="54o_0" departPos="5.10" departSpeed="0.00" departDelay="0.00" arrival="304.00" arrivalLane="53i_0" arrivalPos="10.00" arrivalSpeed="11.42" duration="103.00" routeLength="1015.10" waitSteps="0" timeLoss="26.58" rerouteNo="0" devices="tripinfo_down_62" vType="typeNS" speedFactor="1.00" vaporized=""/>
    <tripinfo id="down_65" depart="218.00" departLane="54o_0" departPos="5.10" departSpeed="0.00" departDelay="0.00" arrival="309.00" arrivalLane="53i_0" arrivalPos="10.00" arrivalSpeed="11.47" duration="91.00" routeLength="1015.10" waitSteps="0" timeLoss="15.05" rerouteNo="0" devices="tripinfo_down_65" vType="typeNS" speedFactor="1.00" vaporized=""/>
    <tripinfo id="down_66" depart="223.00" departLane="54o_0" departPos="5.10" departSpeed="0.00" departDelay="4.00" arrival="313.00" arrivalLane="53i_0" arrivalPos="10.00" arrivalSpeed="11.41" duration="90.00" routeLength="1015.10" waitSteps="0" timeLoss="13.96" rerouteNo="0" devices="tripinfo_down_66" vType="typeNS" speedFactor="1.00" vaporized=""/>
    <tripinfo id="down_67" depart="228.00" departLane="54o_0" departPos="5.10" departSpeed="0.00" departDelay="1.00" arrival="319.00" arrivalLane="53i_0" arrivalPos="10.00" arrivalSpeed="11.15" duration="91.00" routeLength="1015.10" waitSteps="0" timeLoss="15.10" rerouteNo="0" devices="tripinfo_down_67" vType="typeNS" speedFactor="1.00" vaporized=""/>
    <tripinfo id="down_69" depart="233.00" departLane="54o_0" departPos="5.10" departSpeed="0.00" departDelay="0.00" arrival="324.00" arrivalLane="53i_0" arrivalPos="10.00" arrivalSpeed="11.29" duration="91.00" routeLength="1015.10" waitSteps="0" timeLoss="14.96" rerouteNo="0" devices="tripinfo_down_69" vType="typeNS" speedFactor="1.00" vaporized=""/>
    <tripinfo id="up_70" depart="233.00" departLane="53o_0" departPos="5.10" departSpeed="0.00" departDelay="0.00" arrival="325.00" arrivalLane="54i_0" arrivalPos="10.00" arrivalSpeed="10.80" duration="92.00" routeLength="1015.10" waitSteps="0" timeLoss="15.86" rerouteNo="0" devices="tripinfo_up_70" vType="typeNS" speedFactor="1.00" vaporized=""/>
    <tripinfo id="up_71" depart="238.00" departLane="53o_0" departPos="5.10" departSpeed="0.00" departDelay="4.00" arrival="329.00" arrivalLane="54i_0" arrivalPos="10.00" arrivalSpeed="11.36" duration="91.00" routeLength="1015.10" waitSteps="0" timeLoss="14.87" rerouteNo="0" devices="tripinfo_up_71" vType="typeNS" speedFactor="1.00" vaporized=""/>
    <tripinfo id="down_72" depart="238.00" departLane="54o_0" departPos="5.10" departSpeed="0.00" departDelay="2.00" arrival="329.00" arrivalLane="53i_0" arrivalPos="10.00" arrivalSpeed="11.34" duration="91.00" routeLength="1015.10" waitSteps="0" timeLoss="15.07" rerouteNo="0" devices="tripinfo_down_72" vType="typeNS" speedFactor="1.00" vaporized=""/>
    <tripinfo id="down_74" depart="243.00" departLane="54o_0" departPos="5.10" departSpeed="0.00" departDelay="5.00" arrival="335.00" arrivalLane="53i_0" arrivalPos="10.00" arrivalSpeed="11.77" duration="92.00" routeLength="1015.10" waitSteps="0" timeLoss="15.69" rerouteNo="0" devices="tripinfo_down_74" vType="typeNS" speedFactor="1.00" vaporized=""/>
    <tripinfo id="up_78" depart="247.00" departLane="53o_0" departPos="5.10" departSpeed="0.00" departDelay="0.00" arrival="339.00" arrivalLane="54i_0" arrivalPos="10.00" arrivalSpeed="11.63" duration="92.00" routeLength="1015.10" waitSteps="0" timeLoss="15.78" rerouteNo="0" devices="tripinfo_up_78" vType="typeNS" speedFactor="1.00" vaporized=""/>
    <tripinfo id="down_75" depart="248.00" departLane="54o_0" departPos="5.10" departSpeed="0.00" departDelay="6.00" arrival="339.00" arrivalLane="53i_0" arrivalPos="10.00" arrivalSpeed="11.53" duration="91.00" routeLength="1015.10" waitSteps="0" timeLoss="15.07" rerouteNo="0" devices="tripinfo_down_75" vType="typeNS" speedFactor="1.00" vaporized=""/>
    <tripinfo id="down_79" depart="253.00" departLane="54o_0" departPos="5.10" departSpeed="0.00" departDelay="1.00" arrival="343.00" arrivalLane="53i_0" arrivalPos="10.00" arrivalSpeed="11.29" duration="90.00" routeLength="1015.10" waitSteps="0" timeLoss="13.73" rerouteNo="0" devices="tripinfo_down_79" vType="typeNS" speedFactor="1.00" vaporized=""/>
    <tripinfo id="right_61" depart="201.00" departLane="51o_0" departPos="5.10" departSpeed="0.00" departDelay="3.00" arrival="356.00" arrivalLane="52i_0" arrivalPos="10.00" arrivalSpeed="11.66" duration="155.00" routeLength="1015.10" waitSteps="54" timeLoss="78.74" rerouteNo="0" devices="tripinfo_right_61" vType="typeWE" speedFactor="1.00" vaporized=""/>
    <tripinfo id="left_76" depart="251.00" departLane="52o_0" departPos="5.10" departSpeed="0.00" departDelay="6.00" arrival="357.00" arrivalLane="51i_0" arrivalPos="10.00" arrivalSpeed="11.44" duration="106.00" routeLength="1015.10" waitSteps="3" timeLoss="29.65" rerouteNo="0" devices="tripinfo_left_76" vType="typeWE" speedFactor="1.00" vaporized=""/>
    <tripinfo id="right_63" depart="206.00" departLane="51o_0" departPos="5.10" departSpeed="0.00" departDelay="4.00" arrival="358.00" arrivalLane="52i_0" arrivalPos="10.00" arrivalSpeed="11.39" duration="152.00" routeLength="1015.10" waitSteps="51" timeLoss="75.75" rerouteNo="0" devices="tripinfo_right_63" vType="typeWE" speedFactor="1.00" vaporized=""/>
    <tripinfo id="left_84" depart="263.00" departLane="52o_0" departPos="5.10" departSpeed="0.00" departDelay="0.00" arrival="359.00" arrivalLane="51i_0" arrivalPos="10.00" arrivalSpeed="11.41" duration="96.00" routeLength="1015.10" waitSteps="0" timeLoss="19.50" rerouteNo="0" devices="tripinfo_left_84" vType="typeWE" speedFactor="1.00" vaporized=""/>
    <tripinfo id="right_64" depart="211.00" departLane="51o_0" departPos="5.10" departSpeed="0.00" departDelay="3.00" arrival="360.00" arrivalLane="52i_0" arrivalPos="10.00" arrivalSpeed="11.46" duration="149.00" routeLength="1015.10" waitSteps="47" timeLoss="72.59" rerouteNo="0" devices="tripinfo_right_64" vType="typeWE" speedFactor="1.00" vaporized=""/>
    <tripinfo id="right_68" depart="230.00" departLane="51o_0" departPos="5.10" departSpeed="0.00" departDelay="0.00" arrival="362.00" arrivalLane="52i_0" arrivalPos="10.00" arrivalSpeed="11.26" duration="132.00" routeLength="1015.10" waitSteps="28" timeLoss="56.04" rerouteNo="0" devices="tripinfo_right_68" vType="typeWE" speedFactor="1.00" vaporized=""/>
    <tripinfo id="left_88" depart="273.00" departLane="52o_0" departPos="5.10" departSpeed="0.00" departDelay="0.00" arrival="364.00" arrivalLane="51i_0" arrivalPos="10.00" arrivalSpeed="11.52" duration="91.00" routeLength="1015.10" waitSteps="0" timeLoss="14.75" rerouteNo="0" devices="tripinfo_left_88" vType="typeWE" speedFactor="1.00" vaporized=""/>
    <tripinfo id="right_73" depart="239.00" departLane="51o_0" departPos="5.10" departSpeed="0.00" departDelay="1.00" arrival="365.00" arrivalLane="52i_0" arrivalPos="10.00" arrivalSpeed="11.38" duration="126.00" routeLength="1015.10" waitSteps="21" timeLoss="49.61" rerouteNo="0" devices="tripinfo_right_73" vType="typeWE" speedFactor="1.00" vaporized=""/>