<?xml version="1.0" encoding="UTF-8"?>

<!-- generated on Mon Apr 30 16:37:44 2018 by SUMO Version 0.32.0
<?xml version="1.0" encoding="UTF-8"?>

<configuration xmlns:xsi="http://www.w3.org/2001/XMLSchema-instance" xsi:noNamespaceSchemaLocation="http://sumo.dlr.de/xsd/sumoConfiguration.xsd">

    <input>
        <net-file value="data/cross.net.xml"/>
        <route-files value="data/cross.rou.xml"/>
        <additional-files value="data/cross.det.xml"/>
    </input>

    <output>
        <summary-output value="data/cross.out"/>
        <tripinfo-output value="output/tripinfo83.xml"/>
    </output>

    <time>
        <begin value="0"/>
    </time>

    <report>
        <verbose value="true"/>
        <duration-log.statistics value="true"/>
        <no-step-log value="true"/>
    </report>

    <traci_server>
        <remote-port value="38995"/>
    </traci_server>

</configuration>
-->

<tripinfos xmlns:xsi="http://www.w3.org/2001/XMLSchema-instance" xsi:noNamespaceSchemaLocation="http://sumo.dlr.de/xsd/tripinfo_file.xsd">
    <tripinfo id="down_0" depart="1.00" departLane="54o_0" departPos="5.10" departSpeed="0.00" departDelay="0.00" arrival="92.00" arrivalLane="53i_0" arrivalPos="10.00" arrivalSpeed="11.62" duration="91.00" routeLength="1015.10" waitSteps="0" timeLoss="14.57" rerouteNo="0" devices="tripinfo_down_0" vType="typeNS" speedFactor="1.00" vaporized=""/>
    <tripinfo id="up_1" depart="1.00" departLane="53o_0" departPos="5.10" departSpeed="0.00" departDelay="0.00" arrival="93.00" arrivalLane="54i_0" arrivalPos="10.00" arrivalSpeed="11.73" duration="92.00" routeLength="1015.10" waitSteps="0" timeLoss="15.41" rerouteNo="0" devices="tripinfo_up_1" vType="typeNS" speedFactor="1.00" vaporized=""/>
    <tripinfo id="up_2" depart="6.00" departLane="53o_0" departPos="5.10" departSpeed="0.00" departDelay="4.00" arrival="97.00" arrivalLane="54i_0" arrivalPos="10.00" arrivalSpeed="11.63" duration="91.00" routeLength="1015.10" waitSteps="0" timeLoss="14.27" rerouteNo="0" devices="tripinfo_up_2" vType="typeNS" speedFactor="1.00" vaporized=""/>
    <tripinfo id="down_5" depart="10.00" departLane="54o_0" departPos="5.10" departSpeed="0.00" departDelay="0.00" arrival="101.00" arrivalLane="53i_0" arrivalPos="10.00" arrivalSpeed="10.95" duration="91.00" routeLength="1015.10" waitSteps="0" timeLoss="14.82" rerouteNo="0" devices="tripinfo_down_5" vType="typeNS" speedFactor="1.00" vaporized=""/>
    <tripinfo id="up_7" depart="15.00" departLane="53o_0" departPos="5.10" departSpeed="0.00" departDelay="0.00" arrival="106.00" arrivalLane="54i_0" arrivalPos="10.00" arrivalSpeed="11.22" duration="91.00" routeLength="1015.10" waitSteps="0" timeLoss="14.79" rerouteNo="0" devices="tripinfo_up_7" vType="typeNS" speedFactor="1.00" vaporized=""/>
    <tripinfo id="right_3" depart="3.00" departLane="51o_0" departPos="5.10" departSpeed="0.00" departDelay="0.00" arrival="116.00" arrivalLane="52i_0" arrivalPos="10.00" arrivalSpeed="11.61" duration="113.00" routeLength="1015.10" waitSteps="12" timeLoss="37.12" rerouteNo="0" devices="tripinfo_right_3" vType="typeWE" speedFactor="1.00" vaporized=""/>
    <tripinfo id="right_4" depart="10.00" departLane="51o_0" departPos="5.10" departSpeed="0.00" departDelay="0.00" arrival="119.00" arrivalLane="52i_0" arrivalPos="10.00" arrivalSpeed="11.24" duration="109.00" routeLength="1015.10" waitSteps="6" timeLoss="32.39" rerouteNo="0" devices="tripinfo_right_4" vType="typeWE" speedFactor="1.00" vaporized=""/>
    <tripinfo id="right_8" depart="20.00" departLane="51o_0" departPos="5.10" departSpeed="0.00" departDelay="0.00" arrival="121.00" arrivalLane="52i_0" arrivalPos="10.00" arrivalSpeed="11.47" duration="101.00" routeLength="1015.10" waitSteps="0" timeLoss="24.57" rerouteNo="0" devices="tripinfo_right_8" vType="typeWE" speedFactor="1.00" vaporized=""/>
    <tripinfo id="right_10" depart="25.00" departLane="51o_0" departPos="5.10" departSpeed="0.00" departDelay="4.00" arrival="123.00" arrivalLane="52i_0" arrivalPos="10.00" arrivalSpeed="11.66" duration="98.00" routeLength="1015.10" waitSteps="0" timeLoss="21.70" rerouteNo="0" devices="tripinfo_right_10" vType="typeWE" speedFactor="1.00" vaporized=""/>
    <tripinfo id="right_11" depart="30.00" departLane="51o_0" departPos="5.10" departSpeed="0.00" departDelay="8.00" arrival="125.00" arrivalLane="52i_0" arrivalPos="10.00" arrivalSpeed="11.90" duration="95.00" routeLength="1015.10" waitSteps="0" timeLoss="18.55" rerouteNo="0" devices="tripinfo_right_11" vType="typeWE" speedFactor="1.00" vaporized=""/>
    <tripinfo id="right_14" depart="35.00" departLane="51o_0" departPos="5.10" departSpeed="0.00" departDelay="1.00" arrival="129.00" arrivalLane="52i_0" arrivalPos="10.00" arrivalSpeed="11.67" duration="94.00" routeLength="1015.10" waitSteps="0" timeLoss="17.51" rerouteNo="0" devices="tripinfo_right_14" vType="typeWE" speedFactor="1.00" vaporized=""/>
    <tripinfo id="left_17" depart="40.00" departLane="52o_0" departPos="5.10" departSpeed="0.00" departDelay="0.00" arrival="131.00" arrivalLane="51i_0" arrivalPos="10.00" arrivalSpeed="11.48" duration="91.00" routeLength="1015.10" waitSteps="0" timeLoss="14.80" rerouteNo="0" devices="tripinfo_left_17" vType="typeWE" speedFactor="1.00" vaporized=""/>
    <tripinfo id="right_16" depart="41.00" departLane="51o_0" departPos="5.10" departSpeed="0.00" departDelay="5.00" arrival="132.00" arrivalLane="52i_0" arrivalPos="10.00" arrivalSpeed="11.50" duration="91.00" routeLength="1015.10" waitSteps="0" timeLoss="14.22" rerouteNo="0" devices="tripinfo_right_16" vType="typeWE" speedFactor="1.00" vaporized=""/>
    <tripinfo id="left_18" depart="45.00" departLane="52o_0" departPos="5.10" departSpeed="0.00" departDelay="4.00" arrival="136.00" arrivalLane="51i_0" arrivalPos="10.00" arrivalSpeed="11.47" duration="91.00" routeLength="1015.10" waitSteps="0" timeLoss="14.67" rerouteNo="0" devices="tripinfo_left_18" vType="typeWE" speedFactor="1.00" vaporized=""/>
    <tripinfo id="left_20" depart="50.00" departLane="52o_0" departPos="5.10" departSpeed="0.00" departDelay="6.00" arrival="142.00" arrivalLane="51i_0" arrivalPos="10.00" arrivalSpeed="11.82" duration="92.00" routeLength="1015.10" waitSteps="0" timeLoss="15.79" rerouteNo="0" devices="tripinfo_left_20" vType="typeWE" speedFactor="1.00" vaporized=""/>
    <tripinfo id="left_21" depart="56.00" departLane="52o_0" departPos="5.10" departSpeed="0.00" departDelay="9.00" arrival="147.00" arrivalLane="51i_0" arrivalPos="10.00" arrivalSpeed="11.52" duration="91.00" routeLength="1015.10" waitSteps="0" timeLoss="14.73" rerouteNo="0" devices="tripinfo_left_21" vType="typeWE" speedFactor="1.00" vaporized=""/>
    <tripinfo id="right_25" depart="57.00" departLane="51o_0" departPos="5.10" departSpeed="0.00" departDelay="0.00" arrival="148.00" arrivalLane="52i_0" arrivalPos="10.00" arrivalSpeed="11.34" duration="91.00" routeLength="1015.10" waitSteps="0" timeLoss="14.87" rerouteNo="0" devices="tripinfo_right_25" vType="typeWE" speedFactor="1.00" vaporized=""/>
    <tripinfo id="right_26" depart="62.00" departLane="51o_0" departPos="5.10" departSpeed="0.00" departDelay="1.00" arrival="153.00" arrivalLane="52i_0" arrivalPos="10.00" arrivalSpeed="11.40" duration="91.00" routeLength="1015.10" waitSteps="0" timeLoss="14.79" rerouteNo="0" devices="tripinfo_right_26" vType="typeWE" speedFactor="1.00" vaporized=""/>
    <tripinfo id="up_9" depart="20.00" departLane="53o_0" departPos="5.10" departSpeed="0.00" departDelay="0.00" arrival="176.00" arrivalLane="54i_0" arrivalPos="10.00" arrivalSpeed="11.88" duration="156.00" routeLength="1015.10" waitSteps="54" timeLoss="79.56" rerouteNo="0" devices="tripinfo_up_9" vType="typeNS" speedFactor="1.00" vaporized=""/>
    <tripinfo id="down_6" depart="15.00" departLane="54o_0" departPos="5.10" departSpeed="0.00" departDelay="3.00" arrival="177.00" arrivalLane="53i_0" arrivalPos="10.00" arrivalSpeed="11.51" duration="162.00" routeLength="1015.10" waitSteps="60" timeLoss="85.49" rerouteNo="0" devices="tripinfo_down_6" vType="typeNS" speedFactor="1.00" vaporized=""/>
    <tripinfo id="up_12" depart="26.00" departLane="53o_0" departPos="5.10" departSpeed="0.00" departDelay="0.00" arrival="178.00" arrivalLane="54i_0" arrivalPos="10.00" arrivalSpeed="11.78" duration="152.00" routeLength="1015.10" waitSteps="50" timeLoss="75.70" rerouteNo="0" devices="tripinfo_up_12" vType="typeNS" speedFactor="1.00" vaporized=""/>
    <tripinfo id="down_24" depart="51.00" departLane="54o_0" departPos="5.10" departSpeed="0.00" departDelay="0.00" arrival="179.00" arrivalLane="53i_0" arrivalPos="10.00" arrivalSpeed="11.37" duration="128.00" routeLength="1015.10" waitSteps="23" timeLoss="51.78" rerouteNo="0" devices="tripinfo_down_24" vType="typeNS" speedFactor="1.00" vaporized=""/>
    <tripinfo id="up_13" depart="31.00" departLane="53o_0" departPos="5.10" departSpeed="0.00" departDelay="2.00" arrival="180.00" arrivalLane="54i_0" arrivalPos="10.00" arrivalSpeed="11.35" duration="149.00" routeLength="1015.10" waitSteps="46" timeLoss="73.16" rerouteNo="0" devices="tripinfo_up_13" vType="typeNS" speedFactor="1.00" vaporized=""/>
    <tripinfo id="down_28" depart="71.00" departLane="54o_0" departPos="5.10" departSpeed="0.00" departDelay="0.00" arrival="181.00" arrivalLane="53i_0" arrivalPos="10.00" arrivalSpeed="11.68" duration="110.00" routeLength="1015.10" waitSteps="7" timeLoss="33.53" rerouteNo="0" devices="tripinfo_down_28" vType="typeNS" speedFactor="1.00" vaporized=""/>
    <tripinfo id="up_15" depart="36.00" departLane="53o_0" departPos="5.10" departSpeed="0.00" departDelay="1.00" arrival="182.00" arrivalLane="54i_0" arrivalPos="10.00" arrivalSpeed="11.48" duration="146.00" routeLength="1015.10" waitSteps="43" timeLoss="69.81" rerouteNo="0" devices="tripinfo_up_15" vType="typeNS" speedFactor="1.00" vaporized=""/>
    <tripinfo id="down_29" depart="76.00" departLane="54o_0" departPos="5.10" departSpeed="0.00" departDelay="0.00" arrival="183.00" arrivalLane="53i_0" arrivalPos="10.00" arrivalSpeed="11.49" duration="107.00" routeLength="1015.10" waitSteps="4" timeLoss="30.60" rerouteNo="0" devices="tripinfo_down_29" vType="typeNS" speedFactor="1.00" vaporized=""/>
    <tripinfo id="down_33" depart="90.00" departLane="54o_0" departPos="5.10" departSpeed="0.00" departDelay="0.00" arrival="185.00" arrivalLane="53i_0" arrivalPos="10.00" arrivalSpeed="11.44" duration="95.00" routeLength="1015.10" waitSteps="0" timeLoss="18.34" rerouteNo="0" devices="tripinfo_down_33" vType="typeNS" speedFactor="1.00" vaporized=""/>
    <tripinfo id="up_19" depart="43.00" departLane="53o_0" departPos="5.10" departSpeed="0.00" departDelay="0.00" arrival="185.00" arrivalLane="54i_0" arrivalPos="10.00" arrivalSpeed="11.66" duration="142.00" routeLength="1015.10" waitSteps="37" timeLoss="65.96" rerouteNo="0" devices="tripinfo_up_19" vType="typeNS" speedFactor="1.00" vaporized=""/>
    <tripinfo id="up_22" depart="48.00" departLane="53o_0" departPos="5.10" departSpeed="0.00" departDelay="1.00" arrival="187.00" arrivalLane="54i_0" arrivalPos="10.00" arrivalSpeed="11.15" duration="139.00" routeLength="1015.10" waitSteps="34" timeLoss="62.82" rerouteNo="0" devices="tripinfo_up_22" vType="typeNS" speedFactor="1.00" vaporized=""/>
    <tripinfo id="up_23" depart="53.00" departLane="53o_0" departPos="5.10" departSpeed="0.00" departDelay="3.00" arrival="189.00" arrivalLane="54i_0" arrivalPos="10.00" arrivalSpeed="11.73" duration="136.00" routeLength="1015.10" waitSteps="32" timeLoss="59.91" rerouteNo="0" devices="tripinfo_up_23" vType="typeNS" speedFactor="1.00" vaporized=""/>
    <tripinfo id="up_27" depart="63.00" departLane="53o_0" departPos="5.10" departSpeed="0.00" departDelay="0.00" arrival="191.00" arrivalLane="54i_0" arrivalPos="10.00" arrivalSpeed="11.50" duration="128.00" routeLength="1015.10" waitSteps="22" timeLoss="51.68" rerouteNo="0" devices="tripinfo_up_27" vType="typeNS" speedFactor="1.00" vaporized=""/>
    <tripinfo id="down_39" depart="109.00" departLane="54o_0" departPos="5.10" departSpeed="0.00" departDelay="0.00" arrival="201.00" arrivalLane="53i_0" arrivalPos="10.00" arrivalSpeed="11.70" duration="92.00" routeLength="1015.10" waitSteps="0" timeLoss="15.74" rerouteNo="0" devices="tripinfo_down_39" vType="typeNS" speedFactor="1.00" vaporized=""/>
    <tripinfo id="down_43" depart="119.00" departLane="54o_0" departPos="5.10" departSpeed="0.00" departDelay="0.00" arrival="210.00" arrivalLane="53i_0" arrivalPos="10.00" arrivalSpeed="11.26" duration="91.00" routeLength="1015.10" waitSteps="0" timeLoss="15.04" rerouteNo="0" devices="tripinfo_down_43" vType="typeNS" speedFactor="1.00" vaporized=""/>
    <tripinfo id="up_42" depart="118.00" departLane="53o_0" departPos="5.10" departSpeed="0.00" departDelay="0.00" arrival="210.00" arrivalLane="54i_0" arrivalPos="10.00" arrivalSpeed="11.49" duration="92.00" routeLength="1015.10" waitSteps="0" timeLoss="15.37" rerouteNo="0" devices="tripinfo_up_42" vType="typeNS" speedFactor="1.00" vaporized=""/>
    <tripinfo id="up_44" depart="123.00" departLane="53o_0" departPos="5.10" departSpeed="0.00" departDelay="0.00" arrival="216.00" arrivalLane="54i_0" arrivalPos="10.00" arrivalSpeed="11.28" duration="93.00" routeLength="1015.10" waitSteps="0" timeLoss="16.48" rerouteNo="0" devices="tripinfo_up_44" vType="typeNS" speedFactor="1.00" vaporized=""/>
    <tripinfo id="up_46" depart="130.00" departLane="53o_0" departPos="5.10" departSpeed="0.00" departDelay="0.00" arrival="221.00" arrivalLane="54i_0" arrivalPos="10.00" arrivalSpeed="11.65" duration="91.00" routeLength="1015.10" waitSteps="0" timeLoss="14.66" rerouteNo="0" devices="tripinfo_up_46" vType="typeNS" speedFactor="1.00" vaporized=""/>
    <tripinfo id="right_30" depart="84.00" departLane="51o_0" departPos="5.10" departSpeed="0.00" departDelay="0.00" arrival="236.00" arrivalLane="52i_0" arrivalPos="10.00" arrivalSpeed="11.41" duration="152.00" routeLength="1015.10" waitSteps="49" timeLoss="75.89" rerouteNo="0" devices="tripinfo_right_30" vType="typeWE" speedFactor="1.00" vaporized=""/>
    <tripinfo id="left_31" depart="85.00" departLane="52o_0" departPos="5.10" departSpeed="0.00" departDelay="0.00" arrival="237.00" arrivalLane="51i_0" arrivalPos="10.00" arrivalSpeed="11.53" duration="152.00" routeLength="1015.10" waitSteps="50" timeLoss="75.70" rerouteNo="0" devices="tripinfo_left_31" vType="typeWE" speedFactor="1.00" vaporized=""/>
    <tripinfo id="right_32" depart="90.00" departLane="51o_0" departPos="5.10" departSpeed="0.00" departDelay="0.00" arrival="238.00" arrivalLane="52i_0" arrivalPos="10.00" arrivalSpeed="11.50" duration="148.00" routeLength="1015.10" waitSteps="45" timeLoss="72.19" rerouteNo="0" devices="tripinfo_right_32" vType="typeWE" speedFactor="1.00" vaporized=""/>
    <tripinfo id="left_34" depart="94.00" departLane="52o_0" departPos="5.10" departSpeed="0.00" departDelay="0.00" arrival="239.00" arrivalLane="51i_0" arrivalPos="10.00" arrivalSpeed="11.35" duration="145.00" routeLength="1015.10" waitSteps="41" timeLoss="68.45" rerouteNo="0" devices="tripinfo_left_34" vType="typeWE" speedFactor="1.00" vaporized=""/>
    <tripinfo id="right_35" depart="95.00" departLane="51o_0" departPos="5.10" departSpeed="0.00" departDelay="0.00" arrival="241.00" arrivalLane="52i_0" arrivalPos="10.00" arrivalSpeed="11.38" duration="146.00" routeLength="1015.10" waitSteps="43" timeLoss="69.72" rerouteNo="0" devices="tripinfo_right_35" vType="typeWE" speedFactor="1.00" vaporized=""/>
    <tripinfo id="left_36" depart="99.00" departLane="52o_0" departPos="5.10" departSpeed="0.00" departDelay="4.00" arrival="241.00" arrivalLane="51i_0" arrivalPos="10.00" arrivalSpeed="11.45" duration="142.00" routeLength="1015.10" waitSteps="38" timeLoss="65.66" rerouteNo="0" devices="tripinfo_left_36" vType="typeWE" speedFactor="1.00" vaporized=""/>
    <tripinfo id="right_40" depart="110.00" departLane="51o_0" departPos="5.10" departSpeed="0.00" departDelay="0.00" arrival="243.00" arrivalLane="52i_0" arrivalPos="10.00" arrivalSpeed="11.65" duration="133.00" routeLength="1015.10" waitSteps="29" timeLoss="56.67" rerouteNo="0" devices="tripinfo_right_40" vType="typeWE" speedFactor="1.00" vaporized=""/>
    <tripinfo id="left_37" depart="105.00" departLane="52o_0" departPos="5.10" departSpeed="0.00" departDelay="5.00" arrival="243.00" arrivalLane="51i_0" arrivalPos="10.00" arrivalSpeed="11.76" duration="138.00" routeLength="1015.10" waitSteps="34" timeLoss="61.55" rerouteNo="0" devices="tripinfo_left_37" vType="typeWE" speedFactor="1.00" vaporized=""/>
    <tripinfo id="left_38" depart="110.00" departLane="52o_0" departPos="5.10" departSpeed="0.00" departDelay="3.00" arrival="244.00" arrivalLane="51i_0" arrivalPos="10.00" arrivalSpeed="10.88" duration="134.00" routeLength="1015.10" waitSteps="30" timeLoss="57.98" rerouteNo="0" devices="tripinfo_left_38" vType="typeWE" speedFactor="1.00" vaporized=""/>
    <tripinfo id="right_47" depart="136.00" departLane="51o_0" departPos="5.10" departSpeed="0.00" departDelay="2.00" arrival="245.00" arrivalLane="52i_0" arrivalPos="10.00" arrivalSpeed="11.60" duration="109.00" routeLength="1015.10" waitSteps="4" timeLoss="32.94" rerouteNo="0" devices="tripinfo_right_47" vType="typeWE" speedFactor="1.00" vaporized=""/>
    <tripinfo id="left_41" depart="116.00" departLane="52o_0" departPos="5.10" departSpeed="0.00" departDelay="6.00" arrival="246.00" arrivalLane="51i_0" arrivalPos="10.00" arrivalSpeed="11.52" duration="130.00" routeLength="1015.10" waitSteps="25" timeLoss="54.15" rerouteNo="0" devices="tripinfo_left_41" vType="typeWE" speedFactor="1.00" vaporized=""/>
    <tripinfo id="right_49" depart="142.00" departLane="51o_0" departPos="5.10" departSpeed="0.00" departDelay="4.00" arrival="247.00" arrivalLane="52i_0" arrivalPos="10.00" arrivalSpeed="11.33" duration="105.00" routeLength="1015.10" waitSteps="0" timeLoss="28.79" rerouteNo="0" devices="tripinfo_right_49" vType="typeWE" speedFactor="1.00" vaporized=""/>
    <tripinfo id="left_45" depart="129.00" departLane="52o_0" departPos="5.10" departSpeed="0.00" departDelay="1.00" arrival="248.00" arrivalLane="51i_0" arrivalPos="10.00" arrivalSpeed="11.76" duration="119.00" routeLength="1015.10" waitSteps="15" timeLoss="42.89" rerouteNo="0" devices="tripinfo_left_45" vType="typeWE" speedFactor="1.00" vaporized=""/>
    <tripinfo id="right_51" depart="152.00" departLane="51o_0" departPos="5.10" departSpeed="0.00" departDelay="0.00" arrival="249.00" arrivalLane="52i_0" arrivalPos="10.00" arrivalSpeed="11.43" duration="97.00" routeLength="1015.10" waitSteps="0" timeLoss="20.77" rerouteNo="0" devices="tripinfo_right_51" vType="typeWE" speedFactor="1.00" vaporized=""/>
    <tripinfo id="left_48" depart="137.00" departLane="52o_0" departPos="5.10" departSpeed="0.00" departDelay="0.00" arrival="250.00" arrivalLane="51i_0" arrivalPos="10.00" arrivalSpeed="11.54" duration="113.00" routeLength="1015.10" waitSteps="8" timeLoss="36.85" rerouteNo="0" devices="tripinfo_left_48" vType="typeWE" speedFactor="1.00" vaporized=""/>
    <tripinfo id="right_52" depart="157.00" departLane="51o_0" departPos="5.10" departSpeed="0.00" departDelay="3.00" arrival="251.00" arrivalLane="52i_0" arrivalPos="10.00" arrivalSpeed="11.46" duration="94.00" routeLength="1015.10" waitSteps="0" timeLoss="17.55" rerouteNo="0" devices="tripinfo_right_52" vType="typeWE" speedFactor="1.00" vaporized=""/>
    <tripinfo id="left_54" depart="155.00" departLane="52o_0" departPos="5.10" departSpeed="0.00" departDelay="0.00" arrival="252.00" arrivalLane="51i_0" arrivalPos="10.00" arrivalSpeed="11.73" duration="97.00" routeLength="1015.10" waitSteps="0" timeLoss="20.70" rerouteNo="0" devices="tripinfo_left_54" vType="typeWE" speedFactor="1.00" vaporized=""/>
    <tripinfo id="right_53" depart="162.00" departLane="51o_0" departPos="5.10" departSpeed="0.00" departDelay="7.00" arrival="254.00" arrivalLane="52i_0" arrivalPos="10.00" arrivalSpeed="11.81" duration="92.00" routeLength="1015.10" waitSteps="0" timeLoss="15.83" rerouteNo="0" devices="tripinfo_right_53" vType="typeWE" speedFactor="1.00" vaporized=""/>
    <tripinfo id="left_57" depart="160.00" departLane="52o_0" departPos="5.10" departSpeed="0.00" departDelay="0.00" arrival="254.00" arrivalLane="51i_0" arrivalPos="10.00" arrivalSpeed="11.67" duration="94.00" routeLength="1015.10" waitSteps="0" timeLoss="17.57" rerouteNo="0" devices="tripinfo_left_57" vType="typeWE" speedFactor="1.00" vaporized=""/>
    <tripinfo id="right_55" depart="167.00" departLane="51o_0" departPos="5.10" departSpeed="0.00" departDelay="8.00" arrival="258.00" arrivalLane="52i_0" arrivalPos="10.00" arrivalSpeed="10.76" duration="91.00" routeLength="1015.10" waitSteps="0" timeLoss="14.81" rerouteNo="0" devices="tripinfo_right_55" vType="typeWE" speedFactor="1.00" vaporized=""/>
    <tripinfo id="right_59" depart="172.00" departLane="51o_0" departPos="5.10" departSpeed="0.00" departDelay="8.00" arrival="264.00" arrivalLane="52i_0" arrivalPos="10.00" arrivalSpeed="11.49" duration="92.00" routeLength="1015.10" waitSteps="0" timeLoss="15.39" rerouteNo="0" devices="tripinfo_right_59" vType="typeWE" speedFactor="1.00" vaporized=""/>
    <tripinfo id="right_61" depart="178.00" departLane="51o_0" departPos="5.10" departSpeed="0.00" departDelay="10.00" arrival="269.00" arrivalLane="52i_0" arrivalPos="10.00" arrivalSpeed="11.72" duration="91.00" routeLength="1015.10" waitSteps="0" timeLoss="14.68" rerouteNo="0" devices="tripinfo_right_61" vType="typeWE" speedFactor="1.00" vaporized=""/>
    <tripinfo id="left_64" depart="180.00" departLane="52o_0" departPos="5.10" departSpeed="0.00" departDelay="0.00" arrival="272.00" arrivalLane="51i_0" arrivalPos="10.00" arrivalSpeed="11.62" duration="92.00" routeLength="1015.10" waitSteps="0" timeLoss="15.65" rerouteNo="0" devices="tripinfo_left_64" vType="typeWE" speedFactor="1.00" vaporized=""/>
    <tripinfo id="right_63" depart="183.00" departLane="51o_0" departPos="5.10" departSpeed="0.00" departDelay="4.00" arrival="274.00" arrivalLane="52i_0" arrivalPos="10.00" arrivalSpeed="11.81" duration="91.00" routeLength="1015.10" waitSteps="0" timeLoss="14.96" rerouteNo="0" devices="tripinfo_right_63" vType="typeWE" speedFactor="1.00" vaporized=""/>
    <tripinfo id="left_68" depart="185.00" departLane="52o_0" departPos="5.10" departSpeed="0.00" departDelay="0.00" arrival="277.00" arrivalLane="51i_0" arrivalPos="10.00" arrivalSpeed="11.70" duration="92.00" routeLength="1015.10" waitSteps="0" timeLoss="15.31" rerouteNo="0" devices="tripinfo_left_68" vType="typeWE" speedFactor="1.00" vaporized=""/>
    <tripinfo id="left_71" depart="190.00" departLane="52o_0" departPos="5.10" departSpeed="0.00" departDelay="1.00" arrival="281.00" arrivalLane="51i_0" arrivalPos="10.00" arrivalSpeed="11.29" duration="91.00" routeLength="1015.10" waitSteps="0" timeLoss="14.74" rerouteNo="0" devices="tripinfo_left_71" vType="typeWE" speedFactor="1.00" vaporized=""/>
    <tripinfo id="right_72" depart="193.00" departLane="51o_0" departPos="5.10" departSpeed="0.00" departDelay="0.00" arrival="284.00" arrivalLane="52i_0" arrivalPos="10.00" arrivalSpeed="11.48" duration="91.00" routeLength="1015.10" waitSteps="0" timeLoss="14.75" rerouteNo="0" devices="tripinfo_right_72" vType="typeWE" speedFactor="1.00" vaporized=""/>
    <tripinfo id="down_56" depart="159.00" departLane="54o_0" departPos="5.10" departSpeed="0.00" departDelay="0.00" arrival="296.00" arrivalLane="53i_0" arrivalPos="10.00" arrivalSpeed="11.39" duration="137.00" routeLength="1015.10" waitSteps="35" timeLoss="60.54" rerouteNo="0" devices="tripinfo_down_56" vType="typeNS" speedFactor="1.00" vaporized=""/>
    <tripinfo id="up_50" depart="147.00" departLane="53o_0" departPos="5.10" departSpeed="0.00" departDelay="0.00" arrival="297.00" arrivalLane="54i_0" arrivalPos="10.00" arrivalSpeed="11.51" duration="150.00" routeLength="1015.10" waitSteps="47" timeLoss="73.38" rerouteNo="0" devices="tripinfo_up_50" vType="typeNS" speedFactor="1.00" vaporized=""/>
    <tripinfo id="up_62" depart="171.00" departLane="53o_0" departPos="5.10" departSpeed="0.00" departDelay="0.00" arrival="298.00" arrivalLane="54i_0" arrivalPos="10.00" arrivalSpeed="11.78" duration="127.00" routeLength="1015.10" waitSteps="25" timeLoss="51.17" rerouteNo="0" devices="tripinfo_up_62" vType="typeNS" speedFactor="1.00" vaporized=""/>
    <tripinfo id="down_58" depart="164.00" departLane="54o_0" departPos="5.10" departSpeed="0.00" departDelay="3.00" arrival="299.00" arrivalLane="53i_0" arrivalPos="10.00" arrivalSpeed="11.71" duration="135.00" routeLength="1015.10" waitSteps="30" timeLoss="58.37" rerouteNo="0" devices="tripinfo_down_58" vType="typeNS" speedFactor="1.00" vaporized=""/>
    <tripinfo id="down_60" depart="169.00" departLane="54o_0" departPos="5.10" departSpeed="0.00" departDelay="4.00" arrival="300.00" arrivalLane="53i_0" arrivalPos="10.00" arrivalSpeed="11.39" duration="131.00" routeLength="1015.10" waitSteps="28" timeLoss="55.24" rerouteNo="0" devices="tripinfo_down_60" vType="typeNS" speedFactor="1.00" vaporized=""/>
    <tripinfo id="up_65" depart="185.00" departLane="53o_0" departPos="5.10" departSpeed="0.00" departDelay="5.00" arrival="301.00" arrivalLane="54i_0" arrivalPos="10.00" arrivalSpeed="11.68" duration="116.00" routeLength="1015.10" waitSteps="12" timeLoss="39.72" rerouteNo="0" devices="tripinfo_up_65" vType="typeNS" speedFactor="1.00" vaporized=""/>
    <tripinfo id="down_75" depart="210.00" departLane="54o_0" departPos="5.10" departSpeed="0.00" departDelay="2.00" arrival="302.00" arrivalLane="53i_0" arrivalPos="10.00" arrivalSpeed="11.54" duration="92.00" routeLength="1015.10" waitSteps="0" timeLoss="15.93" rerouteNo="0" devices="tripinfo_down_75" vType="typeNS" speedFactor="1.00" vaporized=""/>
    <tripinfo id="up_66" depart="190.00" departLane="53o_0" departPos="5.10" departSpeed="0.00" departDelay="8.00" arrival="303.00" arrivalLane="54i_0" arrivalPos="10.00" arrivalSpeed="11.71" duration="113.00" routeLength="1015.10" waitSteps="8" timeLoss="36.60" rerouteNo="0" devices="tripinfo_up_66" vType="typeNS" speedFactor="1.00" vaporized=""/>
    <tripinfo id="up_67" depart="195.00" departLane="53o_0" departPos="5.10" departSpeed="0.00" departDelay="11.00" arrival="305.00" arrivalLane="54i_0" arrivalPos="10.00" arrivalSpeed="11.28" duration="110.00" routeLength="1015.10" waitSteps="5" timeLoss="33.42" rerouteNo="0" devices="tripinfo_up_67" vType="typeNS" speedFactor="1.00" vaporized=""/>
    <tripinfo id="up_69" depart="201.00" departLane="53o_0" departPos="5.10" departSpeed="0.00" departDelay="16.00" arrival="306.00" arrivalLane="54i_0" arrivalPos="10.00" arrivalSpeed="11.65" duration="105.00" routeLength="1015.10" waitSteps="0" timeLoss="29.11" rerouteNo="0" devices="tripinfo_up_69" vType="typeNS" speedFactor="1.00" vaporized=""/>
    <tripinfo id="up_70" depart="206.00" departLane="53o_0" departPos="5.10" departSpeed="0.00" departDelay="20.00" arrival="308.00" arrivalLane="54i_0" arrivalPos="10.00" arrivalSpeed="10.98" duration="102.00" routeLength="1015.10" waitSteps="0" timeLoss="25.96" rerouteNo="0" devices="tripinfo_up_70" vType="typeNS" speedFactor="1.00" vaporized=""/>
    <tripinfo id="down_76" depart="216.00" departLane="54o_0" departPos="5.10" departSpeed="0.00" departDelay="7.00" arrival="308.00" arrivalLane="53i_0" arrivalPos="10.00" arrivalSpeed="11.55" duration="92.00" routeLength="1015.10" waitSteps="0" timeLoss="15.20" rerouteNo="0" devices="tripinfo_down_76" vType="typeNS" speedFactor="1.00" vaporized=""/>
    <tripinfo id="up_73" depart="211.00" departLane="53o_0" departPos="5.10" departSpeed="0.00" departDelay="13.00" arrival="310.00" arrivalLane="54i_0" arrivalPos="10.00" arrivalSpeed="11.03" duration="99.00" routeLength="1015.10" waitSteps="0" timeLoss="22.98" rerouteNo="0" devices="tripinfo_up_73" vType="typeNS" speedFactor="1.00" vaporized=""/>
    <tripinfo id="up_78" depart="216.00" departLane="53o_0" departPos="5.10" departSpeed="0.00" departDelay="4.00" arrival="312.00" arrivalLane="54i_0" arrivalPos="10.00" arrivalSpeed="11.47" duration="96.00" routeLength="1015.10" waitSteps="0" timeLoss="20.12" rerouteNo="0" devices="tripinfo_up_78" vType="typeNS" speedFactor="1.00" vaporized=""/>
    <tripinfo id="down_77" depart="221.00" departLane="54o_0" departPos="5.10" departSpeed="0.00" departDelay="10.00" arrival="312.00" arrivalLane="53i_0" arrivalPos="10.00" arrivalSpeed="11.44" duration="91.00" routeLength="1015.10" waitSteps="0" timeLoss="14.68" rerouteNo="0" devices="tripinfo_down_77" vType="typeNS" speedFactor="1.00" vaporized=""/>
    <tripinfo id="up_80" depart="221.00" departLane="53o_0" departPos="5.10" departSpeed="0.00" departDelay="4.00" arrival="314.00" arrivalLane="54i_0" arrivalPos="10.00" arrivalSpeed="11.40" duration="93.00" routeLength="1015.10" waitSteps="0" timeLoss="16.68" rerouteNo="0" devices="tripinfo_up_80" vType="typeNS" speedFactor="1.00" vaporized=""/>
    <tripinfo id="down_86" depart="226.00" departLane="54o_0" departPos="5.10" departSpeed="0.00" departDelay="0.00" arrival="317.00" arrivalLane="53i_0" arrivalPos="10.00" arrivalSpeed="11.50" duration="91.00" routeLength="1015.10" waitSteps="0" timeLoss="14.84" rerouteNo="0" devices="tripinfo_down_86" vType="typeNS" speedFactor="1.00" vaporized=""/>
    <tripinfo id="down_88" depart="234.00" departLane="54o_0" departPos="5.10" departSpeed="0.00" departDelay="0.00" arrival="326.00" arrivalLane="53i_0" arrivalPos="10.00" arrivalSpeed="11.66" duration="92.00" routeLength="1015.10" waitSteps="0" timeLoss="15.35" rerouteNo="0" devices="tripinfo_down_88" vType="typeNS" speedFactor="1.00" vaporized=""/>