<?xml version="1.0" encoding="UTF-8"?>

<!-- generated on Mon Apr 30 16:37:29 2018 by SUMO Version 0.32.0
<?xml version="1.0" encoding="UTF-8"?>

<configuration xmlns:xsi="http://www.w3.org/2001/XMLSchema-instance" xsi:noNamespaceSchemaLocation="http://sumo.dlr.de/xsd/sumoConfiguration.xsd">

    <input>
        <net-file value="data/cross.net.xml"/>
        <route-files value="data/cross.rou.xml"/>
        <additional-files value="data/cross.det.xml"/>
    </input>

    <output>
        <summary-output value="data/cross.out"/>
        <tripinfo-output value="output/tripinfo76.xml"/>
    </output>

    <time>
        <begin value="0"/>
    </time>

    <report>
        <verbose value="true"/>
        <duration-log.statistics value="true"/>
        <no-step-log value="true"/>
    </report>

    <traci_server>
        <remote-port value="35941"/>
    </traci_server>

</configuration>
-->

<tripinfos xmlns:xsi="http://www.w3.org/2001/XMLSchema-instance" xsi:noNamespaceSchemaLocation="http://sumo.dlr.de/xsd/tripinfo_file.xsd">
    <tripinfo id="down_0" depart="0.00" departLane="54o_0" departPos="5.10" departSpeed="0.00" departDelay="0.00" arrival="92.00" arrivalLane="53i_0" arrivalPos="10.00" arrivalSpeed="11.40" duration="92.00" routeLength="1015.10" waitSteps="0" timeLoss="15.83" rerouteNo="0" devices="tripinfo_down_0" vType="typeNS" speedFactor="1.00" vaporized=""/>
    <tripinfo id="up_4" depart="11.00" departLane="53o_0" departPos="5.10" departSpeed="0.00" departDelay="0.00" arrival="101.00" arrivalLane="54i_0" arrivalPos="10.00" arrivalSpeed="11.45" duration="90.00" routeLength="1015.10" waitSteps="0" timeLoss="13.67" rerouteNo="0" devices="tripinfo_up_4" vType="typeNS" speedFactor="1.00" vaporized=""/>
    <tripinfo id="left_1" depart="1.00" departLane="52o_0" departPos="5.10" departSpeed="0.00" departDelay="0.00" arrival="116.00" arrivalLane="51i_0" arrivalPos="10.00" arrivalSpeed="10.85" duration="115.00" routeLength="1015.10" waitSteps="14" timeLoss="38.97" rerouteNo="0" devices="tripinfo_left_1" vType="typeWE" speedFactor="1.00" vaporized=""/>
    <tripinfo id="right_2" depart="2.00" departLane="51o_0" departPos="5.10" departSpeed="0.00" departDelay="0.00" arrival="116.00" arrivalLane="52i_0" arrivalPos="10.00" arrivalSpeed="11.61" duration="114.00" routeLength="1015.10" waitSteps="12" timeLoss="37.67" rerouteNo="0" devices="tripinfo_right_2" vType="typeWE" speedFactor="1.00" vaporized=""/>
    <tripinfo id="right_3" depart="7.00" departLane="51o_0" departPos="5.10" departSpeed="0.00" departDelay="4.00" arrival="118.00" arrivalLane="52i_0" arrivalPos="10.00" arrivalSpeed="11.39" duration="111.00" routeLength="1015.10" waitSteps="8" timeLoss="35.25" rerouteNo="0" devices="tripinfo_right_3" vType="typeWE" speedFactor="1.00" vaporized=""/>
    <tripinfo id="left_8" depart="21.00" departLane="52o_0" departPos="5.10" departSpeed="0.00" departDelay="0.00" arrival="119.00" arrivalLane="51i_0" arrivalPos="10.00" arrivalSpeed="11.78" duration="98.00" routeLength="1015.10" waitSteps="0" timeLoss="21.96" rerouteNo="0" devices="tripinfo_left_8" vType="typeWE" speedFactor="1.00" vaporized=""/>
    <tripinfo id="right_7" depart="21.00" departLane="51o_0" departPos="5.10" departSpeed="0.00" departDelay="0.00" arrival="120.00" arrivalLane="52i_0" arrivalPos="10.00" arrivalSpeed="11.65" duration="99.00" routeLength="1015.10" waitSteps="0" timeLoss="22.93" rerouteNo="0" devices="tripinfo_right_7" vType="typeWE" speedFactor="1.00" vaporized=""/>
    <tripinfo id="left_10" depart="27.00" departLane="52o_0" departPos="5.10" departSpeed="0.00" departDelay="0.00" arrival="121.00" arrivalLane="51i_0" arrivalPos="10.00" arrivalSpeed="11.52" duration="94.00" routeLength="1015.10" waitSteps="0" timeLoss="17.84" rerouteNo="0" devices="tripinfo_left_10" vType="typeWE" speedFactor="1.00" vaporized=""/>
    <tripinfo id="right_12" depart="31.00" departLane="51o_0" departPos="5.10" departSpeed="0.00" departDelay="0.00" arrival="122.00" arrivalLane="52i_0" arrivalPos="10.00" arrivalSpeed="11.51" duration="91.00" routeLength="1015.10" waitSteps="0" timeLoss="14.76" rerouteNo="0" devices="tripinfo_right_12" vType="typeWE" speedFactor="1.00" vaporized=""/>
    <tripinfo id="left_14" depart="35.00" departLane="52o_0" departPos="5.10" departSpeed="0.00" departDelay="0.00" arrival="126.00" arrivalLane="51i_0" arrivalPos="10.00" arrivalSpeed="11.68" duration="91.00" routeLength="1015.10" waitSteps="0" timeLoss="14.69" rerouteNo="0" devices="tripinfo_left_14" vType="typeWE" speedFactor="1.00" vaporized=""/>
    <tripinfo id="right_16" depart="37.00" departLane="51o_0" departPos="5.10" departSpeed="0.00" departDelay="0.00" arrival="129.00" arrivalLane="52i_0" arrivalPos="10.00" arrivalSpeed="11.16" duration="92.00" routeLength="1015.10" waitSteps="0" timeLoss="15.84" rerouteNo="0" devices="tripinfo_right_16" vType="typeWE" speedFactor="1.00" vaporized=""/>
    <tripinfo id="right_18" depart="42.00" departLane="51o_0" departPos="5.10" departSpeed="0.00" departDelay="0.00" arrival="133.00" arrivalLane="52i_0" arrivalPos="10.00" arrivalSpeed="11.44" duration="91.00" routeLength="1015.10" waitSteps="0" timeLoss="14.97" rerouteNo="0" devices="tripinfo_right_18" vType="typeWE" speedFactor="1.00" vaporized=""/>
    <tripinfo id="right_20" depart="48.00" departLane="51o_0" departPos="5.10" departSpeed="0.00" departDelay="2.00" arrival="139.00" arrivalLane="52i_0" arrivalPos="10.00" arrivalSpeed="11.59" duration="91.00" routeLength="1015.10" waitSteps="0" timeLoss="14.99" rerouteNo="0" devices="tripinfo_right_20" vType="typeWE" speedFactor="1.00" vaporized=""/>
    <tripinfo id="left_22" depart="51.00" departLane="52o_0" departPos="5.10" departSpeed="0.00" departDelay="0.00" arrival="142.00" arrivalLane="51i_0" arrivalPos="10.00" arrivalSpeed="11.24" duration="91.00" routeLength="1015.10" waitSteps="0" timeLoss="14.99" rerouteNo="0" devices="tripinfo_left_22" vType="typeWE" speedFactor="1.00" vaporized=""/>
    <tripinfo id="right_24" depart="54.00" departLane="51o_0" departPos="5.10" departSpeed="0.00" departDelay="0.00" arrival="146.00" arrivalLane="52i_0" arrivalPos="10.00" arrivalSpeed="11.16" duration="92.00" routeLength="1015.10" waitSteps="0" timeLoss="15.43" rerouteNo="0" devices="tripinfo_right_24" vType="typeWE" speedFactor="1.00" vaporized=""/>
    <tripinfo id="left_25" depart="56.00" departLane="52o_0" departPos="5.10" departSpeed="0.00" departDelay="0.00" arrival="147.00" arrivalLane="51i_0" arrivalPos="10.00" arrivalSpeed="11.32" duration="91.00" routeLength="1015.10" waitSteps="0" timeLoss="14.75" rerouteNo="0" devices="tripinfo_left_25" vType="typeWE" speedFactor="1.00" vaporized=""/>
    <tripinfo id="right_30" depart="67.00" departLane="51o_0" departPos="5.10" departSpeed="0.00" departDelay="0.00" arrival="158.00" arrivalLane="52i_0" arrivalPos="10.00" arrivalSpeed="11.69" duration="91.00" routeLength="1015.10" waitSteps="0" timeLoss="14.71" rerouteNo="0" devices="tripinfo_right_30" vType="typeWE" speedFactor="1.00" vaporized=""/>
    <tripinfo id="left_31" depart="68.00" departLane="52o_0" departPos="5.10" departSpeed="0.00" departDelay="0.00" arrival="160.00" arrivalLane="51i_0" arrivalPos="10.00" arrivalSpeed="11.42" duration="92.00" routeLength="1015.10" waitSteps="0" timeLoss="15.57" rerouteNo="0" devices="tripinfo_left_31" vType="typeWE" speedFactor="1.00" vaporized=""/>
    <tripinfo id="up_5" depart="18.00" departLane="53o_0" departPos="5.10" departSpeed="0.00" departDelay="0.00" arrival="176.00" arrivalLane="54i_0" arrivalPos="10.00" arrivalSpeed="11.53" duration="158.00" routeLength="1015.10" waitSteps="60" timeLoss="81.12" rerouteNo="0" devices="tripinfo_up_5" vType="typeNS" speedFactor="1.00" vaporized=""/>
    <tripinfo id="down_6" depart="20.00" departLane="54o_0" departPos="5.10" departSpeed="0.00" departDelay="0.00" arrival="177.00" arrivalLane="53i_0" arrivalPos="10.00" arrivalSpeed="11.44" duration="157.00" routeLength="1015.10" waitSteps="54" timeLoss="80.91" rerouteNo="0" devices="tripinfo_down_6" vType="typeNS" speedFactor="1.00" vaporized=""/>
    <tripinfo id="up_9" depart="24.00" departLane="53o_0" departPos="5.10" departSpeed="0.00" departDelay="0.00" arrival="178.00" arrivalLane="54i_0" arrivalPos="10.00" arrivalSpeed="11.47" duration="154.00" routeLength="1015.10" waitSteps="49" timeLoss="78.18" rerouteNo="0" devices="tripinfo_up_9" vType="typeNS" speedFactor="1.00" vaporized=""/>
    <tripinfo id="down_11" depart="27.00" departLane="54o_0" departPos="5.10" departSpeed="0.00" departDelay="0.00" arrival="179.00" arrivalLane="53i_0" arrivalPos="10.00" arrivalSpeed="11.44" duration="152.00" routeLength="1015.10" waitSteps="49" timeLoss="75.58" rerouteNo="0" devices="tripinfo_down_11" vType="typeNS" speedFactor="1.00" vaporized=""/>
    <tripinfo id="up_13" depart="31.00" departLane="53o_0" departPos="5.10" departSpeed="0.00" departDelay="0.00" arrival="180.00" arrivalLane="54i_0" arrivalPos="10.00" arrivalSpeed="11.68" duration="149.00" routeLength="1015.10" waitSteps="45" timeLoss="73.20" rerouteNo="0" devices="tripinfo_up_13" vType="typeNS" speedFactor="1.00" vaporized=""/>
    <tripinfo id="down_21" depart="49.00" departLane="54o_0" departPos="5.10" departSpeed="0.00" departDelay="0.00" arrival="181.00" arrivalLane="53i_0" arrivalPos="10.00" arrivalSpeed="11.59" duration="132.00" routeLength="1015.10" waitSteps="27" timeLoss="55.67" rerouteNo="0" devices="tripinfo_down_21" vType="typeNS" speedFactor="1.00" vaporized=""/>
    <tripinfo id="up_15" depart="36.00" departLane="53o_0" departPos="5.10" departSpeed="0.00" departDelay="0.00" arrival="183.00" arrivalLane="54i_0" arrivalPos="10.00" arrivalSpeed="11.44" duration="147.00" routeLength="1015.10" waitSteps="42" timeLoss="70.92" rerouteNo="0" devices="tripinfo_up_15" vType="typeNS" speedFactor="1.00" vaporized=""/>
    <tripinfo id="down_26" depart="57.00" departLane="54o_0" departPos="5.10" departSpeed="0.00" departDelay="0.00" arrival="183.00" arrivalLane="53i_0" arrivalPos="10.00" arrivalSpeed="11.24" duration="126.00" routeLength="1015.10" waitSteps="22" timeLoss="49.56" rerouteNo="0" devices="tripinfo_down_26" vType="typeNS" speedFactor="1.00" vaporized=""/>
    <tripinfo id="up_17" depart="42.00" departLane="53o_0" departPos="5.10" departSpeed="0.00" departDelay="3.00" arrival="185.00" arrivalLane="54i_0" arrivalPos="10.00" arrivalSpeed="11.29" duration="143.00" routeLength="1015.10" waitSteps="38" timeLoss="66.64" rerouteNo="0" devices="tripinfo_up_17" vType="typeNS" speedFactor="1.00" vaporized=""/>
    <tripinfo id="down_27" depart="62.00" departLane="54o_0" departPos="5.10" departSpeed="0.00" departDelay="3.00" arrival="186.00" arrivalLane="53i_0" arrivalPos="10.00" arrivalSpeed="11.45" duration="124.00" routeLength="1015.10" waitSteps="19" timeLoss="47.75" rerouteNo="0" devices="tripinfo_down_27" vType="typeNS" speedFactor="1.00" vaporized=""/>
    <tripinfo id="up_19" depart="47.00" departLane="53o_0" departPos="5.10" departSpeed="0.00" departDelay="5.00" arrival="187.00" arrivalLane="54i_0" arrivalPos="10.00" arrivalSpeed="11.73" duration="140.00" routeLength="1015.10" waitSteps="35" timeLoss="63.36" rerouteNo="0" devices="tripinfo_up_19" vType="typeNS" speedFactor="1.00" vaporized=""/>
    <tripinfo id="up_23" depart="52.00" departLane="53o_0" departPos="5.10" departSpeed="0.00" departDelay="0.00" arrival="188.00" arrivalLane="54i_0" arrivalPos="10.00" arrivalSpeed="11.25" duration="136.00" routeLength="1015.10" waitSteps="31" timeLoss="60.24" rerouteNo="0" devices="tripinfo_up_23" vType="typeNS" speedFactor="1.00" vaporized=""/>
    <tripinfo id="down_28" depart="67.00" departLane="54o_0" departPos="5.10" departSpeed="0.00" departDelay="1.00" arrival="188.00" arrivalLane="53i_0" arrivalPos="10.00" arrivalSpeed="11.74" duration="121.00" routeLength="1015.10" waitSteps="15" timeLoss="44.68" rerouteNo="0" devices="tripinfo_down_28" vType="typeNS" speedFactor="1.00" vaporized=""/>
    <tripinfo id="down_32" depart="72.00" departLane="54o_0" departPos="5.10" departSpeed="0.00" departDelay="3.00" arrival="190.00" arrivalLane="53i_0" arrivalPos="10.00" arrivalSpeed="11.57" duration="118.00" routeLength="1015.10" waitSteps="10" timeLoss="41.52" rerouteNo="0" devices="tripinfo_down_32" vType="typeNS" speedFactor="1.00" vaporized=""/>
    <tripinfo id="down_34" depart="77.00" departLane="54o_0" departPos="5.10" departSpeed="0.00" departDelay="5.00" arrival="191.00" arrivalLane="53i_0" arrivalPos="10.00" arrivalSpeed="10.97" duration="114.00" routeLength="1015.10" waitSteps="8" timeLoss="37.99" rerouteNo="0" devices="tripinfo_down_34" vType="typeNS" speedFactor="1.00" vaporized=""/>
    <tripinfo id="up_29" depart="66.00" departLane="53o_0" departPos="5.10" departSpeed="0.00" departDelay="0.00" arrival="191.00" arrivalLane="54i_0" arrivalPos="10.00" arrivalSpeed="11.46" duration="125.00" routeLength="1015.10" waitSteps="19" timeLoss="48.46" rerouteNo="0" devices="tripinfo_up_29" vType="typeNS" speedFactor="1.00" vaporized=""/>
    <tripinfo id="up_33" depart="71.00" departLane="53o_0" departPos="5.10" departSpeed="0.00" departDelay="1.00" arrival="192.00" arrivalLane="54i_0" arrivalPos="10.00" arrivalSpeed="11.35" duration="121.00" routeLength="1015.10" waitSteps="17" timeLoss="45.22" rerouteNo="0" devices="tripinfo_up_33" vType="typeNS" speedFactor="1.00" vaporized=""/>
    <tripinfo id="down_36" depart="82.00" departLane="54o_0" departPos="5.10" departSpeed="0.00" departDelay="3.00" arrival="193.00" arrivalLane="53i_0" arrivalPos="10.00" arrivalSpeed="11.54" duration="111.00" routeLength="1015.10" waitSteps="5" timeLoss="35.23" rerouteNo="0" devices="tripinfo_down_36" vType="typeNS" speedFactor="1.00" vaporized=""/>
    <tripinfo id="up_35" depart="76.00" departLane="53o_0" departPos="5.10" departSpeed="0.00" departDelay="1.00" arrival="194.00" arrivalLane="54i_0" arrivalPos="10.00" arrivalSpeed="11.67" duration="118.00" routeLength="1015.10" waitSteps="12" timeLoss="42.18" rerouteNo="0" devices="tripinfo_up_35" vType="typeNS" speedFactor="1.00" vaporized=""/>
    <tripinfo id="down_37" depart="87.00" departLane="54o_0" departPos="5.10" departSpeed="0.00" departDelay="7.00" arrival="195.00" arrivalLane="53i_0" arrivalPos="10.00" arrivalSpeed="11.26" duration="108.00" routeLength="1015.10" waitSteps="2" timeLoss="32.05" rerouteNo="0" devices="tripinfo_down_37" vType="typeNS" speedFactor="1.00" vaporized=""/>
    <tripinfo id="up_39" depart="89.00" departLane="53o_0" departPos="5.10" departSpeed="0.00" departDelay="0.00" arrival="196.00" arrivalLane="54i_0" arrivalPos="10.00" arrivalSpeed="11.51" duration="107.00" routeLength="1015.10" waitSteps="1" timeLoss="31.17" rerouteNo="0" devices="tripinfo_up_39" vType="typeNS" speedFactor="1.00" vaporized=""/>
    <tripinfo id="down_38" depart="92.00" departLane="54o_0" departPos="5.10" departSpeed="0.00" departDelay="11.00" arrival="197.00" arrivalLane="53i_0" arrivalPos="10.00" arrivalSpeed="11.50" duration="105.00" routeLength="1015.10" waitSteps="0" timeLoss="29.05" rerouteNo="0" devices="tripinfo_down_38" vType="typeNS" speedFactor="1.00" vaporized=""/>
    <tripinfo id="down_40" depart="101.00" departLane="54o_0" departPos="5.10" departSpeed="0.00" departDelay="1.00" arrival="199.00" arrivalLane="53i_0" arrivalPos="10.00" arrivalSpeed="11.67" duration="98.00" routeLength="1015.10" waitSteps="0" timeLoss="22.13" rerouteNo="0" devices="tripinfo_down_40" vType="typeNS" speedFactor="1.00" vaporized=""/>
    <tripinfo id="up_43" depart="110.00" departLane="53o_0" departPos="5.10" departSpeed="0.00" departDelay="0.00" arrival="201.00" arrivalLane="54i_0" arrivalPos="10.00" arrivalSpeed="11.59" duration="91.00" routeLength="1015.10" waitSteps="0" timeLoss="14.84" rerouteNo="0" devices="tripinfo_up_43" vType="typeNS" speedFactor="1.00" vaporized=""/>
    <tripinfo id="up_47" depart="118.00" departLane="53o_0" departPos="5.10" departSpeed="0.00" departDelay="0.00" arrival="208.00" arrivalLane="54i_0" arrivalPos="10.00" arrivalSpeed="11.70" duration="90.00" routeLength="1015.10" waitSteps="0" timeLoss="13.81" rerouteNo="0" devices="tripinfo_up_47" vType="typeNS" speedFactor="1.00" vaporized=""/>
    <tripinfo id="down_46" depart="118.00" departLane="54o_0" departPos="5.10" departSpeed="0.00" departDelay="0.00" arrival="210.00" arrivalLane="53i_0" arrivalPos="10.00" arrivalSpeed="11.24" duration="92.00" routeLength="1015.10" waitSteps="0" timeLoss="15.45" rerouteNo="0" devices="tripinfo_down_46" vType="typeNS" speedFactor="1.00" vaporized=""/>
    <tripinfo id="down_48" depart="123.00" departLane="54o_0" departPos="5.10" departSpeed="0.00" departDelay="4.00" arrival="214.00" arrivalLane="53i_0" arrivalPos="10.00" arrivalSpeed="11.48" duration="91.00" routeLength="1015.10" waitSteps="0" timeLoss="14.69" rerouteNo="0" devices="tripinfo_down_48" vType="typeNS" speedFactor="1.00" vaporized=""/>
    <tripinfo id="up_51" depart="127.00" departLane="53o_0" departPos="5.10" departSpeed="0.00" departDelay="0.00" arrival="219.00" arrivalLane="54i_0" arrivalPos="10.00" arrivalSpeed="11.30" duration="92.00" routeLength="1015.10" waitSteps="0" timeLoss="15.34" rerouteNo="0" devices="tripinfo_up_51" vType="typeNS" speedFactor="1.00" vaporized=""/>
    <tripinfo id="down_49" depart="128.00" departLane="54o_0" departPos="5.10" departSpeed="0.00" departDelay="6.00" arrival="220.00" arrivalLane="53i_0" arrivalPos="10.00" arrivalSpeed="11.41" duration="92.00" routeLength="1015.10" waitSteps="0" timeLoss="15.45" rerouteNo="0" devices="tripinfo_down_49" vType="typeNS" speedFactor="1.00" vaporized=""/>
    <tripinfo id="up_53" depart="132.00" departLane="53o_0" departPos="5.10" departSpeed="0.00" departDelay="2.00" arrival="223.00" arrivalLane="54i_0" arrivalPos="10.00" arrivalSpeed="11.48" duration="91.00" routeLength="1015.10" waitSteps="0" timeLoss="14.93" rerouteNo="0" devices="tripinfo_up_53" vType="typeNS" speedFactor="1.00" vaporized=""/>
    <tripinfo id="down_50" depart="133.00" departLane="54o_0" departPos="5.10" departSpeed="0.00" departDelay="10.00" arrival="223.00" arrivalLane="53i_0" arrivalPos="10.00" arrivalSpeed="11.59" duration="90.00" routeLength="1015.10" waitSteps="0" timeLoss="13.92" rerouteNo="0" devices="tripinfo_down_50" vType="typeNS" speedFactor="1.00" vaporized=""/>
    <tripinfo id="right_44" depart="119.00" departLane="51o_0" departPos="5.10" departSpeed="0.00" departDelay="1.00" arrival="236.00" arrivalLane="52i_0" arrivalPos="10.00" arrivalSpeed="11.08" duration="117.00" routeLength="1015.10" waitSteps="14" timeLoss="41.07" rerouteNo="0" devices="tripinfo_right_44" vType="typeWE" speedFactor="1.00" vaporized=""/>
    <tripinfo id="left_41" depart="101.00" departLane="52o_0" departPos="5.10" departSpeed="0.00" departDelay="0.00" arrival="237.00" arrivalLane="51i_0" arrivalPos="10.00" arrivalSpeed="11.53" duration="136.00" routeLength="1015.10" waitSteps="34" timeLoss="59.56" rerouteNo="0" devices="tripinfo_left_41" vType="typeWE" speedFactor="1.00" vaporized=""/>
    <tripinfo id="right_52" depart="128.00" departLane="51o_0" departPos="5.10" departSpeed="0.00" departDelay="0.00" arrival="238.00" arrivalLane="52i_0" arrivalPos="10.00" arrivalSpeed="11.42" duration="110.00" routeLength="1015.10" waitSteps="8" timeLoss="34.17" rerouteNo="0" devices="tripinfo_right_52" vType="typeWE" speedFactor="1.00" vaporized=""/>
    <tripinfo id="left_42" depart="109.00" departLane="52o_0" departPos="5.10" departSpeed="0.00" departDelay="0.00" arrival="239.00" arrivalLane="51i_0" arrivalPos="10.00" arrivalSpeed="11.52" duration="130.00" routeLength="1015.10" waitSteps="27" timeLoss="53.95" rerouteNo="0" devices="tripinfo_left_42" vType="typeWE" speedFactor="1.00" vaporized=""/>
    <tripinfo id="right_54" depart="133.00" departLane="51o_0" departPos="5.10" departSpeed="0.00" departDelay="0.00" arrival="240.00" arrivalLane="52i_0" arrivalPos="10.00" arrivalSpeed="10.90" duration="107.00" routeLength="1015.10" waitSteps="4" timeLoss="31.01" rerouteNo="0" devices="tripinfo_right_54" vType="typeWE" speedFactor="1.00" vaporized=""/>
    <tripinfo id="left_45" depart="118.00" departLane="52o_0" departPos="5.10" departSpeed="0.00" departDelay="0.00" arrival="242.00" arrivalLane="51i_0" arrivalPos="10.00" arrivalSpeed="11.44" duration="124.00" routeLength="1015.10" waitSteps="19" timeLoss="47.42" rerouteNo="0" devices="tripinfo_left_45" vType="typeWE" speedFactor="1.00" vaporized=""/>
    <tripinfo id="right_57" depart="144.00" departLane="51o_0" departPos="5.10" departSpeed="0.00" departDelay="0.00" arrival="242.00" arrivalLane="52i_0" arrivalPos="10.00" arrivalSpeed="11.78" duration="98.00" routeLength="1015.10" waitSteps="0" timeLoss="22.12" rerouteNo="0" devices="tripinfo_right_57" vType="typeWE" speedFactor="1.00" vaporized=""/>
    <tripinfo id="left_55" depart="134.00" departLane="52o_0" departPos="5.10" departSpeed="0.00" departDelay="0.00" arrival="244.00" arrivalLane="51i_0" arrivalPos="10.00" arrivalSpeed="11.34" duration="110.00" routeLength="1015.10" waitSteps="4" timeLoss="33.65" rerouteNo="0" devices="tripinfo_left_55" vType="typeWE" speedFactor="1.00" vaporized=""/>
    <tripinfo id="left_56" depart="142.00" departLane="52o_0" departPos="5.10" departSpeed="0.00" departDelay="0.00" arrival="246.00" arrivalLane="51i_0" arrivalPos="10.00" arrivalSpeed="11.27" duration="104.00" routeLength="1015.10" waitSteps="0" timeLoss="27.56" rerouteNo="0" devices="tripinfo_left_56" vType="typeWE" speedFactor="1.00" vaporized=""/>
    <tripinfo id="right_60" depart="155.00" departLane="51o_0" departPos="5.10" departSpeed="0.00" departDelay="0.00" arrival="247.00" arrivalLane="52i_0" arrivalPos="10.00" arrivalSpeed="11.60" duration="92.00" routeLength="1015.10" waitSteps="0" timeLoss="15.27" rerouteNo="0" devices="tripinfo_right_60" vType="typeWE" speedFactor="1.00" vaporized=""/>
    <tripinfo id="right_62" depart="164.00" departLane="51o_0" departPos="5.10" departSpeed="0.00" departDelay="0.00" arrival="254.00" arrivalLane="52i_0" arrivalPos="10.00" arrivalSpeed="11.49" duration="90.00" routeLength="1015.10" waitSteps="0" timeLoss="13.86" rerouteNo="0" devices="tripinfo_right_62" vType="typeWE" speedFactor="1.00" vaporized=""/>
    <tripinfo id="right_64" depart="176.00" departLane="51o_0" departPos="5.10" departSpeed="0.00" departDelay="0.00" arrival="268.00" arrivalLane="52i_0" arrivalPos="10.00" arrivalSpeed="11.63" duration="92.00" routeLength="1015.10" waitSteps="0" timeLoss="15.57" rerouteNo="0" devices="tripinfo_right_64" vType="typeWE" speedFactor="1.00" vaporized=""/>
    <tripinfo id="right_65" depart="181.00" departLane="51o_0" departPos="5.10" departSpeed="0.00" departDelay="4.00" arrival="272.00" arrivalLane="52i_0" arrivalPos="10.00" arrivalSpeed="11.59" duration="91.00" routeLength="1015.10" waitSteps="0" timeLoss="14.67" rerouteNo="0" devices="tripinfo_right_65" vType="typeWE" speedFactor="1.00" vaporized=""/>
    <tripinfo id="left_68" depart="188.00" departLane="52o_0" departPos="5.10" departSpeed="0.00" departDelay="0.00" arrival="279.00" arrivalLane="51i_0" arrivalPos="10.00" arrivalSpeed="11.24" duration="91.00" routeLength="1015.10" waitSteps="0" timeLoss="14.73" rerouteNo="0" devices="tripinfo_left_68" vType="typeWE" speedFactor="1.00" vaporized=""/>
    <tripinfo id="right_69" depart="192.00" departLane="51o_0" departPos="5.10" departSpeed="0.00" departDelay="0.00" arrival="284.00" arrivalLane="52i_0" arrivalPos="10.00" arrivalSpeed="11.25" duration="92.00" routeLength="1015.10" waitSteps="0" timeLoss="15.98" rerouteNo="0" devices="tripinfo_right_69" vType="typeWE" speedFactor="1.00" vaporized=""/>
    <tripinfo id="down_58" depart="149.00" departLane="54o_0" departPos="5.10" departSpeed="0.00" departDelay="0.00" arrival="296.00" arrivalLane="53i_0" arrivalPos="10.00" arrivalSpeed="11.01" duration="147.00" routeLength="1015.10" waitSteps="45" timeLoss="71.04" rerouteNo="0" devices="tripinfo_down_58" vType="typeNS" speedFactor="1.00" vaporized=""/>
    <tripinfo id="up_59" depart="149.00" departLane="53o_0" departPos="5.10" departSpeed="0.00" departDelay="0.00" arrival="297.00" arrivalLane="54i_0" arrivalPos="10.00" arrivalSpeed="11.17" duration="148.00" routeLength="1015.10" waitSteps="44" timeLoss="71.84" rerouteNo="0" devices="tripinfo_up_59" vType="typeNS" speedFactor="1.00" vaporized=""/>
    <tripinfo id="down_61" depart="156.00" departLane="54o_0" departPos="5.10" departSpeed="0.00" departDelay="0.00" arrival="299.00" arrivalLane="53i_0" arrivalPos="10.00" arrivalSpeed="11.56" duration="143.00" routeLength="1015.10" waitSteps="39" timeLoss="66.91" rerouteNo="0" devices="tripinfo_down_61" vType="typeNS" speedFactor="1.00" vaporized=""/>
    <tripinfo id="up_67" depart="191.00" departLane="53o_0" departPos="5.10" departSpeed="0.00" departDelay="7.00" arrival="299.00" arrivalLane="54i_0" arrivalPos="10.00" arrivalSpeed="11.35" duration="108.00" routeLength="1015.10" waitSteps="5" timeLoss="31.63" rerouteNo="0" devices="tripinfo_up_67" vType="typeNS" speedFactor="1.00" vaporized=""/>
    <tripinfo id="down_63" depart="172.00" departLane="54o_0" departPos="5.10" departSpeed="0.00" departDelay="0.00" arrival="301.00" arrivalLane="53i_0" arrivalPos="10.00" arrivalSpeed="11.46" duration="129.00" routeLength="1015.10" waitSteps="25" timeLoss="52.66" rerouteNo="0" devices="tripinfo_down_63" vType="typeNS" speedFactor="1.00" vaporized=""/>
    <tripinfo id="up_70" depart="202.00" departLane="53o_0" departPos="5.10" departSpeed="0.00" departDelay="0.00" arrival="301.00" arrivalLane="54i_0" arrivalPos="10.00" arrivalSpeed="11.62" duration="99.00" routeLength="1015.10" waitSteps="0" timeLoss="22.55" rerouteNo="0" devices="tripinfo_up_70" vType="typeNS" speedFactor="1.00" vaporized=""/>
    <tripinfo id="up_71" depart="207.00" departLane="53o_0" departPos="5.10" departSpeed="0.00" departDelay="0.00" arrival="302.00" arrivalLane="54i_0" arrivalPos="10.00" arrivalSpeed="11.07" duration="95.00" routeLength="1015.10" waitSteps="0" timeLoss="18.90" rerouteNo="0" devices="tripinfo_up_71" vType="typeNS" speedFactor="1.00" vaporized=""/>
    <tripinfo id="down_66" depart="188.00" departLane="54o_0" departPos="5.10" departSpeed="0.00" departDelay="5.00" arrival="303.00" arrivalLane="53i_0" arrivalPos="10.00" arrivalSpeed="11.54" duration="115.00" routeLength="1015.10" waitSteps="11" timeLoss="38.57" rerouteNo="0" devices="tripinfo_down_66" vType="typeNS" speedFactor="1.00" vaporized=""/>
    <tripinfo id="down_72" depart="208.00" departLane="54o_0" departPos="5.10" departSpeed="0.00" departDelay="0.00" arrival="305.00" arrivalLane="53i_0" arrivalPos="10.00" arrivalSpeed="11.59" duration="97.00" routeLength="1015.10" waitSteps="0" timeLoss="20.57" rerouteNo="0" devices="tripinfo_down_72" vType="typeNS" speedFactor="1.00" vaporized=""/>
    <tripinfo id="down_73" depart="213.00" departLane="54o_0" departPos="5.10" departSpeed="0.00" departDelay="0.00" arrival="307.00" arrivalLane="53i_0" arrivalPos="10.00" arrivalSpeed="11.41" duration="94.00" routeLength="1015.10" waitSteps="0" timeLoss="17.24" rerouteNo="0" devices="tripinfo_down_73" vType="typeNS" speedFactor="1.00" vaporized=""/>
    <tripinfo id="up_74" depart="216.00" departLane="53o_0" departPos="5.10" departSpeed="0.00" departDelay="0.00" arrival="308.00" arrivalLane="54i_0" arrivalPos="10.00" arrivalSpeed="11.84" duration="92.00" routeLength="1015.10" waitSteps="0" timeLoss="15.32" rerouteNo="0" devices="tripinfo_up_74" vType="typeNS" speedFactor="1.00" vaporized=""/>
    <tripinfo id="up_75" depart="221.00" departLane="53o_0" departPos="5.10" departSpeed="0.00" departDelay="4.00" arrival="312.00" arrivalLane="54i_0" arrivalPos="10.00" arrivalSpeed="11.29" duration="91.00" routeLength="1015.10" waitSteps="0" timeLoss="14.82" rerouteNo="0" devices="tripinfo_up_75" vType="typeNS" speedFactor="1.00" vaporized=""/>
    <tripinfo id="up_76" depart="226.00" departLane="53o_0" departPos="5.10" departSpeed="0.00" departDelay="6.00" arrival="317.00" arrivalLane="54i_0" arrivalPos="10.00" arrivalSpeed="11.54" duration="91.00" routeLength="1015.10" waitSteps="0" timeLoss="14.76" rerouteNo="0" devices="tripinfo_up_76" vType="typeNS" speedFactor="1.00" vaporized=""/>
    <tripinfo id="down_80" depart="227.00" departLane="54o_0" departPos="5.10" departSpeed="0.00" departDelay="0.00" arrival="318.00" arrivalLane="53i_0" arrivalPos="10.00" arrivalSpeed="11.43" duration="91.00" routeLength="1015.10" waitSteps="0" timeLoss="14.95" rerouteNo="0" devices="tripinfo_down_80" vType="typeNS" speedFactor="1.00" vaporized=""/>
    <tripinfo id="up_78" depart="231.00" departLane="53o_0" departPos="5.10" departSpeed="0.00" departDelay="8.00" arrival="322.00" arrivalLane="54i_0" arrivalPos="10.00" arrivalSpeed="11.71" duration="91.00" routeLength="1015.10" waitSteps="0" timeLoss="14.60" rerouteNo="0" devices="tripinfo_up_78" vType="typeNS" speedFactor="1.00" vaporized=""/>
    <tripinfo id="down_81" depart="235.00" departLane="54o_0" departPos="5.10" departSpeed="0.00" departDelay="0.00" arrival="327.00" arrivalLane="53i_0" arrivalPos="10.00" arrivalSpeed="11.56" duration="92.00" routeLength="1015.10" waitSteps="0" timeLoss="15.67" rerouteNo="0" devices="tripinfo_down_81" vType="typeNS" speedFactor="1.00" vaporized=""/>
    <tripinfo id="down_83" depart="243.00" departLane="54o_0" departPos="5.10" departSpeed="0.00" departDelay="0.00" arrival="334.00" arrivalLane="53i_0" arrivalPos="10.00" arrivalSpeed="11.73" duration="91.00" routeLength="1015.10" waitSteps="0" timeLoss="14.97" rerouteNo="0" devices="tripinfo_down_83" vType="typeNS" speedFactor="1.00" vaporized=""/>