<?xml version="1.0" encoding="UTF-8"?>

<!-- generated on Mon Apr 30 16:15:43 2018 by SUMO Version 0.32.0
<?xml version="1.0" encoding="UTF-8"?>

<configuration xmlns:xsi="http://www.w3.org/2001/XMLSchema-instance" xsi:noNamespaceSchemaLocation="http://sumo.dlr.de/xsd/sumoConfiguration.xsd">

    <input>
        <net-file value="data/cross.net.xml"/>
        <route-files value="data/cross.rou.xml"/>
        <additional-files value="data/cross.det.xml"/>
    </input>

    <output>
        <summary-output value="data/cross.out"/>
        <tripinfo-output value="output/tripinfo134.xml"/>
    </output>

    <time>
        <begin value="0"/>
    </time>

    <report>
        <verbose value="true"/>
        <duration-log.statistics value="true"/>
        <no-step-log value="true"/>
    </report>

    <traci_server>
        <remote-port value="56527"/>
    </traci_server>

</configuration>
-->

<tripinfos xmlns:xsi="http://www.w3.org/2001/XMLSchema-instance" xsi:noNamespaceSchemaLocation="http://sumo.dlr.de/xsd/tripinfo_file.xsd">
    <tripinfo id="down_1" depart="0.00" departLane="54o_0" departPos="5.10" departSpeed="0.00" departDelay="0.00" arrival="91.00" arrivalLane="53i_0" arrivalPos="10.00" arrivalSpeed="11.30" duration="91.00" routeLength="1015.10" waitSteps="0" timeLoss="14.77" rerouteNo="0" devices="tripinfo_down_1" vType="typeNS" speedFactor="1.00" vaporized=""/>
    <tripinfo id="left_0" depart="0.00" departLane="52o_0" departPos="5.10" departSpeed="0.00" departDelay="0.00" arrival="92.00" arrivalLane="51i_0" arrivalPos="10.00" arrivalSpeed="11.05" duration="92.00" routeLength="1015.10" waitSteps="0" timeLoss="15.86" rerouteNo="0" devices="tripinfo_left_0" vType="typeWE" speedFactor="1.00" vaporized=""/>
    <tripinfo id="right_2" depart="2.00" departLane="51o_0" departPos="5.10" departSpeed="0.00" departDelay="0.00" arrival="93.00" arrivalLane="52i_0" arrivalPos="10.00" arrivalSpeed="11.47" duration="91.00" routeLength="1015.10" waitSteps="0" timeLoss="14.67" rerouteNo="0" devices="tripinfo_right_2" vType="typeWE" speedFactor="1.00" vaporized=""/>
    <tripinfo id="left_3" depart="5.00" departLane="52o_0" departPos="5.10" departSpeed="0.00" departDelay="1.00" arrival="96.00" arrivalLane="51i_0" arrivalPos="10.00" arrivalSpeed="11.51" duration="91.00" routeLength="1015.10" waitSteps="0" timeLoss="14.39" rerouteNo="0" devices="tripinfo_left_3" vType="typeWE" speedFactor="1.00" vaporized=""/>
    <tripinfo id="left_5" depart="10.00" departLane="52o_0" departPos="5.10" departSpeed="0.00" departDelay="0.00" arrival="100.00" arrivalLane="51i_0" arrivalPos="10.00" arrivalSpeed="11.31" duration="90.00" routeLength="1015.10" waitSteps="0" timeLoss="13.78" rerouteNo="0" devices="tripinfo_left_5" vType="typeWE" speedFactor="1.00" vaporized=""/>
    <tripinfo id="left_6" depart="15.00" departLane="52o_0" departPos="5.10" departSpeed="0.00" departDelay="4.00" arrival="106.00" arrivalLane="51i_0" arrivalPos="10.00" arrivalSpeed="11.45" duration="91.00" routeLength="1015.10" waitSteps="0" timeLoss="14.95" rerouteNo="0" devices="tripinfo_left_6" vType="typeWE" speedFactor="1.00" vaporized=""/>
    <tripinfo id="left_7" depart="20.00" departLane="52o_0" departPos="5.10" departSpeed="0.00" departDelay="8.00" arrival="112.00" arrivalLane="51i_0" arrivalPos="10.00" arrivalSpeed="11.48" duration="92.00" routeLength="1015.10" waitSteps="0" timeLoss="15.63" rerouteNo="0" devices="tripinfo_left_7" vType="typeWE" speedFactor="1.00" vaporized=""/>
    <tripinfo id="right_14" depart="23.00" departLane="51o_0" departPos="5.10" departSpeed="0.00" departDelay="0.00" arrival="114.00" arrivalLane="52i_0" arrivalPos="10.00" arrivalSpeed="11.36" duration="91.00" routeLength="1015.10" waitSteps="0" timeLoss="15.06" rerouteNo="0" devices="tripinfo_right_14" vType="typeWE" speedFactor="1.00" vaporized=""/>
    <tripinfo id="left_10" depart="25.00" departLane="52o_0" departPos="5.10" departSpeed="0.00" departDelay="9.00" arrival="117.00" arrivalLane="51i_0" arrivalPos="10.00" arrivalSpeed="11.30" duration="92.00" routeLength="1015.10" waitSteps="0" timeLoss="15.94" rerouteNo="0" devices="tripinfo_left_10" vType="typeWE" speedFactor="1.00" vaporized=""/>
    <tripinfo id="left_11" depart="31.00" departLane="52o_0" departPos="5.10" departSpeed="0.00" departDelay="11.00" arrival="122.00" arrivalLane="51i_0" arrivalPos="10.00" arrivalSpeed="11.45" duration="91.00" routeLength="1015.10" waitSteps="0" timeLoss="15.08" rerouteNo="0" devices="tripinfo_left_11" vType="typeWE" speedFactor="1.00" vaporized=""/>
    <tripinfo id="left_13" depart="36.00" departLane="52o_0" departPos="5.10" departSpeed="0.00" departDelay="14.00" arrival="126.00" arrivalLane="51i_0" arrivalPos="10.00" arrivalSpeed="11.40" duration="90.00" routeLength="1015.10" waitSteps="0" timeLoss="13.81" rerouteNo="0" devices="tripinfo_left_13" vType="typeWE" speedFactor="1.00" vaporized=""/>
    <tripinfo id="right_17" depart="35.00" departLane="51o_0" departPos="5.10" departSpeed="0.00" departDelay="0.00" arrival="126.00" arrivalLane="52i_0" arrivalPos="10.00" arrivalSpeed="11.31" duration="91.00" routeLength="1015.10" waitSteps="0" timeLoss="14.75" rerouteNo="0" devices="tripinfo_right_17" vType="typeWE" speedFactor="1.00" vaporized=""/>
    <tripinfo id="left_15" depart="41.00" departLane="52o_0" departPos="5.10" departSpeed="0.00" departDelay="16.00" arrival="132.00" arrivalLane="51i_0" arrivalPos="10.00" arrivalSpeed="11.49" duration="91.00" routeLength="1015.10" waitSteps="0" timeLoss="14.43" rerouteNo="0" devices="tripinfo_left_15" vType="typeWE" speedFactor="1.00" vaporized=""/>
    <tripinfo id="right_21" depart="41.00" departLane="51o_0" departPos="5.10" departSpeed="0.00" departDelay="0.00" arrival="133.00" arrivalLane="52i_0" arrivalPos="10.00" arrivalSpeed="11.73" duration="92.00" routeLength="1015.10" waitSteps="0" timeLoss="15.81" rerouteNo="0" devices="tripinfo_right_21" vType="typeWE" speedFactor="1.00" vaporized=""/>
    <tripinfo id="left_16" depart="46.00" departLane="52o_0" departPos="5.10" departSpeed="0.00" departDelay="15.00" arrival="138.00" arrivalLane="51i_0" arrivalPos="10.00" arrivalSpeed="11.60" duration="92.00" routeLength="1015.10" waitSteps="0" timeLoss="15.92" rerouteNo="0" devices="tripinfo_left_16" vType="typeWE" speedFactor="1.00" vaporized=""/>
    <tripinfo id="down_8" depart="13.00" departLane="54o_0" departPos="5.10" departSpeed="0.00" departDelay="0.00" arrival="147.00" arrivalLane="53i_0" arrivalPos="10.00" arrivalSpeed="11.32" duration="134.00" routeLength="1015.10" waitSteps="32" timeLoss="58.10" rerouteNo="0" devices="tripinfo_down_8" vType="typeNS" speedFactor="1.00" vaporized=""/>
    <tripinfo id="up_4" depart="6.00" departLane="53o_0" departPos="5.10" departSpeed="0.00" departDelay="0.00" arrival="147.00" arrivalLane="54i_0" arrivalPos="10.00" arrivalSpeed="11.37" duration="141.00" routeLength="1015.10" waitSteps="38" timeLoss="64.69" rerouteNo="0" devices="tripinfo_up_4" vType="typeNS" speedFactor="1.00" vaporized=""/>
    <tripinfo id="up_9" depart="15.00" departLane="53o_0" departPos="5.10" departSpeed="0.00" departDelay="0.00" arrival="149.00" arrivalLane="54i_0" arrivalPos="10.00" arrivalSpeed="11.79" duration="134.00" routeLength="1015.10" waitSteps="32" timeLoss="57.76" rerouteNo="0" devices="tripinfo_up_9" vType="typeNS" speedFactor="1.00" vaporized=""/>
    <tripinfo id="down_12" depart="21.00" departLane="54o_0" departPos="5.10" departSpeed="0.00" departDelay="0.00" arrival="150.00" arrivalLane="53i_0" arrivalPos="10.00" arrivalSpeed="11.20" duration="129.00" routeLength="1015.10" waitSteps="26" timeLoss="52.63" rerouteNo="0" devices="tripinfo_down_12" vType="typeNS" speedFactor="1.00" vaporized=""/>
    <tripinfo id="down_19" depart="39.00" departLane="54o_0" departPos="5.10" departSpeed="0.00" departDelay="0.00" arrival="152.00" arrivalLane="53i_0" arrivalPos="10.00" arrivalSpeed="11.53" duration="113.00" routeLength="1015.10" waitSteps="9" timeLoss="36.41" rerouteNo="0" devices="tripinfo_down_19" vType="typeNS" speedFactor="1.00" vaporized=""/>
    <tripinfo id="up_18" depart="36.00" departLane="53o_0" departPos="5.10" departSpeed="0.00" departDelay="0.00" arrival="152.00" arrivalLane="54i_0" arrivalPos="10.00" arrivalSpeed="11.32" duration="116.00" routeLength="1015.10" waitSteps="13" timeLoss="39.65" rerouteNo="0" devices="tripinfo_up_18" vType="typeNS" speedFactor="1.00" vaporized=""/>
    <tripinfo id="down_20" depart="44.00" departLane="54o_0" departPos="5.10" departSpeed="0.00" departDelay="4.00" arrival="154.00" arrivalLane="53i_0" arrivalPos="10.00" arrivalSpeed="11.58" duration="110.00" routeLength="1015.10" waitSteps="5" timeLoss="33.37" rerouteNo="0" devices="tripinfo_down_20" vType="typeNS" speedFactor="1.00" vaporized=""/>
    <tripinfo id="down_22" depart="49.00" departLane="54o_0" departPos="5.10" departSpeed="0.00" departDelay="6.00" arrival="155.00" arrivalLane="53i_0" arrivalPos="10.00" arrivalSpeed="11.15" duration="106.00" routeLength="1015.10" waitSteps="2" timeLoss="30.20" rerouteNo="0" devices="tripinfo_down_22" vType="typeNS" speedFactor="1.00" vaporized=""/>
    <tripinfo id="down_28" depart="68.00" departLane="54o_0" departPos="5.10" departSpeed="0.00" departDelay="0.00" arrival="159.00" arrivalLane="53i_0" arrivalPos="10.00" arrivalSpeed="11.74" duration="91.00" routeLength="1015.10" waitSteps="0" timeLoss="14.79" rerouteNo="0" devices="tripinfo_down_28" vType="typeNS" speedFactor="1.00" vaporized=""/>
    <tripinfo id="left_23" depart="59.00" departLane="52o_0" departPos="5.10" departSpeed="0.00" departDelay="0.00" arrival="168.00" arrivalLane="51i_0" arrivalPos="10.00" arrivalSpeed="11.37" duration="109.00" routeLength="1015.10" waitSteps="7" timeLoss="33.15" rerouteNo="0" devices="tripinfo_left_23" vType="typeWE" speedFactor="1.00" vaporized=""/>
    <tripinfo id="right_25" depart="62.00" departLane="51o_0" departPos="5.10" departSpeed="0.00" departDelay="0.00" arrival="169.00" arrivalLane="52i_0" arrivalPos="10.00" arrivalSpeed="11.29" duration="107.00" routeLength="1015.10" waitSteps="5" timeLoss="30.62" rerouteNo="0" devices="tripinfo_right_25" vType="typeWE" speedFactor="1.00" vaporized=""/>
    <tripinfo id="left_24" depart="64.00" departLane="52o_0" departPos="5.10" departSpeed="0.00" departDelay="3.00" arrival="171.00" arrivalLane="51i_0" arrivalPos="10.00" arrivalSpeed="11.54" duration="107.00" routeLength="1015.10" waitSteps="3" timeLoss="31.13" rerouteNo="0" devices="tripinfo_left_24" vType="typeWE" speedFactor="1.00" vaporized=""/>
    <tripinfo id="right_26" depart="68.00" departLane="51o_0" departPos="5.10" departSpeed="0.00" departDelay="0.00" arrival="171.00" arrivalLane="52i_0" arrivalPos="10.00" arrivalSpeed="11.25" duration="103.00" routeLength="1015.10" waitSteps="0" timeLoss="26.58" rerouteNo="0" devices="tripinfo_right_26" vType="typeWE" speedFactor="1.00" vaporized=""/>
    <tripinfo id="up_29" depart="84.00" departLane="53o_0" departPos="5.10" departSpeed="0.00" departDelay="0.00" arrival="174.00" arrivalLane="54i_0" arrivalPos="10.00" arrivalSpeed="11.08" duration="90.00" routeLength="1015.10" waitSteps="0" timeLoss="13.77" rerouteNo="0" devices="tripinfo_up_29" vType="typeNS" speedFactor="1.00" vaporized=""/>
    <tripinfo id="left_27" depart="69.00" departLane="52o_0" departPos="5.10" departSpeed="0.00" departDelay="1.00" arrival="174.00" arrivalLane="51i_0" arrivalPos="10.00" arrivalSpeed="11.54" duration="105.00" routeLength="1015.10" waitSteps="1" timeLoss="28.40" rerouteNo="0" devices="tripinfo_left_27" vType="typeWE" speedFactor="1.00" vaporized=""/>
    <tripinfo id="left_32" depart="88.00" departLane="52o_0" departPos="5.10" departSpeed="0.00" departDelay="0.00" arrival="180.00" arrivalLane="51i_0" arrivalPos="10.00" arrivalSpeed="11.52" duration="92.00" routeLength="1015.10" waitSteps="0" timeLoss="15.77" rerouteNo="0" devices="tripinfo_left_32" vType="typeWE" speedFactor="1.00" vaporized=""/>
    <tripinfo id="down_33" depart="93.00" departLane="54o_0" departPos="5.10" departSpeed="0.00" departDelay="0.00" arrival="183.00" arrivalLane="53i_0" arrivalPos="10.00" arrivalSpeed="11.84" duration="90.00" routeLength="1015.10" waitSteps="0" timeLoss="14.05" rerouteNo="0" devices="tripinfo_down_33" vType="typeNS" speedFactor="1.00" vaporized=""/>
    <tripinfo id="up_30" depart="91.00" departLane="53o_0" departPos="5.10" departSpeed="0.00" departDelay="6.00" arrival="183.00" arrivalLane="54i_0" arrivalPos="10.00" arrivalSpeed="11.58" duration="92.00" routeLength="1015.10" waitSteps="0" timeLoss="15.64" rerouteNo="0" devices="tripinfo_up_30" vType="typeNS" speedFactor="1.00" vaporized=""/>
    <tripinfo id="up_31" depart="97.00" departLane="53o_0" departPos="5.10" departSpeed="0.00" departDelay="11.00" arrival="188.00" arrivalLane="54i_0" arrivalPos="10.00" arrivalSpeed="11.30" duration="91.00" routeLength="1015.10" waitSteps="0" timeLoss="14.85" rerouteNo="0" devices="tripinfo_up_31" vType="typeNS" speedFactor="1.00" vaporized=""/>
    <tripinfo id="up_34" depart="102.00" departLane="53o_0" departPos="5.10" departSpeed="0.00" departDelay="7.00" arrival="193.00" arrivalLane="54i_0" arrivalPos="10.00" arrivalSpeed="11.24" duration="91.00" routeLength="1015.10" waitSteps="0" timeLoss="15.05" rerouteNo="0" devices="tripinfo_up_34" vType="typeNS" speedFactor="1.00" vaporized=""/>
    <tripinfo id="up_38" depart="107.00" departLane="53o_0" departPos="5.10" departSpeed="0.00" departDelay="1.00" arrival="197.00" arrivalLane="54i_0" arrivalPos="10.00" arrivalSpeed="11.74" duration="90.00" routeLength="1015.10" waitSteps="0" timeLoss="13.91" rerouteNo="0" devices="tripinfo_up_38" vType="typeNS" speedFactor="1.00" vaporized=""/>
    <tripinfo id="up_40" depart="112.00" departLane="53o_0" departPos="5.10" departSpeed="0.00" departDelay="2.00" arrival="202.00" arrivalLane="54i_0" arrivalPos="10.00" arrivalSpeed="10.82" duration="90.00" routeLength="1015.10" waitSteps="0" timeLoss="13.82" rerouteNo="0" devices="tripinfo_up_40" vType="typeNS" speedFactor="1.00" vaporized=""/>
    <tripinfo id="down_42" depart="113.00" departLane="54o_0" departPos="5.10" departSpeed="0.00" departDelay="0.00" arrival="204.00" arrivalLane="53i_0" arrivalPos="10.00" arrivalSpeed="11.38" duration="91.00" routeLength="1015.10" waitSteps="0" timeLoss="14.76" rerouteNo="0" devices="tripinfo_down_42" vType="typeNS" speedFactor="1.00" vaporized=""/>
    <tripinfo id="up_41" depart="117.00" departLane="53o_0" departPos="5.10" departSpeed="0.00" departDelay="5.00" arrival="208.00" arrivalLane="54i_0" arrivalPos="10.00" arrivalSpeed="11.34" duration="91.00" routeLength="1015.10" waitSteps="0" timeLoss="14.99" rerouteNo="0" devices="tripinfo_up_41" vType="typeNS" speedFactor="1.00" vaporized=""/>
    <tripinfo id="down_43" depart="118.00" departLane="54o_0" departPos="5.10" departSpeed="0.00" departDelay="2.00" arrival="209.00" arrivalLane="53i_0" arrivalPos="10.00" arrivalSpeed="11.79" duration="91.00" routeLength="1015.10" waitSteps="0" timeLoss="14.92" rerouteNo="0" devices="tripinfo_down_43" vType="typeNS" speedFactor="1.00" vaporized=""/>
    <tripinfo id="left_36" depart="101.00" departLane="52o_0" departPos="5.10" departSpeed="0.00" departDelay="0.00" arrival="218.00" arrivalLane="51i_0" arrivalPos="10.00" arrivalSpeed="11.23" duration="117.00" routeLength="1015.10" waitSteps="15" timeLoss="40.85" rerouteNo="0" devices="tripinfo_left_36" vType="typeWE" speedFactor="1.00" vaporized=""/>
    <tripinfo id="right_35" depart="101.00" departLane="51o_0" departPos="5.10" departSpeed="0.00" departDelay="0.00" arrival="218.00" arrivalLane="52i_0" arrivalPos="10.00" arrivalSpeed="11.64" duration="117.00" routeLength="1015.10" waitSteps="15" timeLoss="41.26" rerouteNo="0" devices="tripinfo_right_35" vType="typeWE" speedFactor="1.00" vaporized=""/>
    <tripinfo id="left_45" depart="117.00" departLane="52o_0" departPos="5.10" departSpeed="0.00" departDelay="0.00" arrival="220.00" arrivalLane="51i_0" arrivalPos="10.00" arrivalSpeed="11.27" duration="103.00" routeLength="1015.10" waitSteps="1" timeLoss="26.70" rerouteNo="0" devices="tripinfo_left_45" vType="typeWE" speedFactor="1.00" vaporized=""/>
    <tripinfo id="right_37" depart="106.00" departLane="51o_0" departPos="5.10" departSpeed="0.00" departDelay="3.00" arrival="220.00" arrivalLane="52i_0" arrivalPos="10.00" arrivalSpeed="11.61" duration="114.00" routeLength="1015.10" waitSteps="12" timeLoss="38.12" rerouteNo="0" devices="tripinfo_right_37" vType="typeWE" speedFactor="1.00" vaporized=""/>
    <tripinfo id="right_39" depart="112.00" departLane="51o_0" departPos="5.10" departSpeed="0.00" departDelay="3.00" arrival="223.00" arrivalLane="52i_0" arrivalPos="10.00" arrivalSpeed="11.87" duration="111.00" routeLength="1015.10" waitSteps="7" timeLoss="35.05" rerouteNo="0" devices="tripinfo_right_39" vType="typeWE" speedFactor="1.00" vaporized=""/>
    <tripinfo id="right_44" depart="117.00" departLane="51o_0" departPos="5.10" departSpeed="0.00" departDelay="0.00" arrival="226.00" arrivalLane="52i_0" arrivalPos="10.00" arrivalSpeed="11.45" duration="109.00" routeLength="1015.10" waitSteps="3" timeLoss="32.54" rerouteNo="0" devices="tripinfo_right_44" vType="typeWE" speedFactor="1.00" vaporized=""/>
    <tripinfo id="right_46" depart="122.00" departLane="51o_0" departPos="5.10" departSpeed="0.00" departDelay="2.00" arrival="228.00" arrivalLane="52i_0" arrivalPos="10.00" arrivalSpeed="11.72" duration="106.00" routeLength="1015.10" waitSteps="0" timeLoss="29.72" rerouteNo="0" devices="tripinfo_right_46" vType="typeWE" speedFactor="1.00" vaporized=""/>
    <tripinfo id="right_47" depart="127.00" departLane="51o_0" departPos="5.10" departSpeed="0.00" departDelay="4.00" arrival="230.00" arrivalLane="52i_0" arrivalPos="10.00" arrivalSpeed="11.42" duration="103.00" routeLength="1015.10" waitSteps="0" timeLoss="26.52" rerouteNo="0" devices="tripinfo_right_47" vType="typeWE" speedFactor="1.00" vaporized=""/>
    <tripinfo id="right_49" depart="132.00" departLane="51o_0" departPos="5.10" departSpeed="0.00" departDelay="2.00" arrival="231.00" arrivalLane="52i_0" arrivalPos="10.00" arrivalSpeed="10.95" duration="99.00" routeLength="1015.10" waitSteps="0" timeLoss="22.91" rerouteNo="0" devices="tripinfo_right_49" vType="typeWE" speedFactor="1.00" vaporized=""/>
    <tripinfo id="down_50" depart="130.00" departLane="54o_0" departPos="5.10" departSpeed="0.00" departDelay="0.00" arrival="240.00" arrivalLane="53i_0" arrivalPos="10.00" arrivalSpeed="11.10" duration="110.00" routeLength="1015.10" waitSteps="9" timeLoss="34.05" rerouteNo="0" devices="tripinfo_down_50" vType="typeNS" speedFactor="1.00" vaporized=""/>
    <tripinfo id="up_48" depart="129.00" departLane="53o_0" departPos="5.10" departSpeed="0.00" departDelay="0.00" arrival="240.00" arrivalLane="54i_0" arrivalPos="10.00" arrivalSpeed="11.44" duration="111.00" routeLength="1015.10" waitSteps="9" timeLoss="35.19" rerouteNo="0" devices="tripinfo_up_48" vType="typeNS" speedFactor="1.00" vaporized=""/>
    <tripinfo id="down_51" depart="136.00" departLane="54o_0" departPos="5.10" departSpeed="0.00" departDelay="0.00" arrival="242.00" arrivalLane="53i_0" arrivalPos="10.00" arrivalSpeed="11.62" duration="106.00" routeLength="1015.10" waitSteps="3" timeLoss="30.14" rerouteNo="0" devices="tripinfo_down_51" vType="typeNS" speedFactor="1.00" vaporized=""/>
    <tripinfo id="up_52" depart="143.00" departLane="53o_0" departPos="5.10" departSpeed="0.00" departDelay="0.00" arrival="242.00" arrivalLane="54i_0" arrivalPos="10.00" arrivalSpeed="11.25" duration="99.00" routeLength="1015.10" waitSteps="0" timeLoss="22.97" rerouteNo="0" devices="tripinfo_up_52" vType="typeNS" speedFactor="1.00" vaporized=""/>
    <tripinfo id="down_53" depart="144.00" departLane="54o_0" departPos="5.10" departSpeed="0.00" departDelay="0.00" arrival="244.00" arrivalLane="53i_0" arrivalPos="10.00" arrivalSpeed="11.55" duration="100.00" routeLength="1015.10" waitSteps="0" timeLoss="24.04" rerouteNo="0" devices="tripinfo_down_53" vType="typeNS" speedFactor="1.00" vaporized=""/>
    <tripinfo id="up_57" depart="155.00" departLane="53o_0" departPos="5.10" departSpeed="0.00" departDelay="2.00" arrival="246.00" arrivalLane="54i_0" arrivalPos="10.00" arrivalSpeed="11.06" duration="91.00" routeLength="1015.10" waitSteps="0" timeLoss="14.83" rerouteNo="0" devices="tripinfo_up_57" vType="typeNS" speedFactor="1.00" vaporized=""/>
    <tripinfo id="down_54" depart="149.00" departLane="54o_0" departPos="5.10" departSpeed="0.00" departDelay="4.00" arrival="246.00" arrivalLane="53i_0" arrivalPos="10.00" arrivalSpeed="11.59" duration="97.00" routeLength="1015.10" waitSteps="0" timeLoss="20.72" rerouteNo="0" devices="tripinfo_down_54" vType="typeNS" speedFactor="1.00" vaporized=""/>
    <tripinfo id="down_60" depart="156.00" departLane="54o_0" departPos="5.10" departSpeed="0.00" departDelay="0.00" arrival="248.00" arrivalLane="53i_0" arrivalPos="10.00" arrivalSpeed="11.48" duration="92.00" routeLength="1015.10" waitSteps="0" timeLoss="15.47" rerouteNo="0" devices="tripinfo_down_60" vType="typeNS" speedFactor="1.00" vaporized=""/>
    <tripinfo id="down_61" depart="161.00" departLane="54o_0" departPos="5.10" departSpeed="0.00" departDelay="4.00" arrival="252.00" arrivalLane="53i_0" arrivalPos="10.00" arrivalSpeed="11.49" duration="91.00" routeLength="1015.10" waitSteps="0" timeLoss="14.76" rerouteNo="0" devices="tripinfo_down_61" vType="typeNS" speedFactor="1.00" vaporized=""/>
    <tripinfo id="up_63" depart="160.00" departLane="53o_0" departPos="5.10" departSpeed="0.00" departDelay="2.00" arrival="253.00" arrivalLane="54i_0" arrivalPos="10.00" arrivalSpeed="11.45" duration="93.00" routeLength="1015.10" waitSteps="0" timeLoss="16.50" rerouteNo="0" devices="tripinfo_up_63" vType="typeNS" speedFactor="1.00" vaporized=""/>
    <tripinfo id="down_64" depart="166.00" departLane="54o_0" departPos="5.10" departSpeed="0.00" departDelay="7.00" arrival="258.00" arrivalLane="53i_0" arrivalPos="10.00" arrivalSpeed="11.53" duration="92.00" routeLength="1015.10" waitSteps="0" timeLoss="15.59" rerouteNo="0" devices="tripinfo_down_64" vType="typeNS" speedFactor="1.00" vaporized=""/>
    <tripinfo id="down_65" depart="171.00" departLane="54o_0" departPos="5.10" departSpeed="0.00" departDelay="7.00" arrival="263.00" arrivalLane="53i_0" arrivalPos="10.00" arrivalSpeed="11.66" duration="92.00" routeLength="1015.10" waitSteps="0" timeLoss="15.24" rerouteNo="0" devices="tripinfo_down_65" vType="typeNS" speedFactor="1.00" vaporized=""/>
    <tripinfo id="up_71" depart="177.00" departLane="53o_0" departPos="5.10" departSpeed="0.00" departDelay="0.00" arrival="269.00" arrivalLane="54i_0" arrivalPos="10.00" arrivalSpeed="11.40" duration="92.00" routeLength="1015.10" waitSteps="0" timeLoss="15.31" rerouteNo="0" devices="tripinfo_up_71" vType="typeNS" speedFactor="1.00" vaporized=""/>
    <tripinfo id="down_73" depart="183.00" departLane="54o_0" departPos="5.10" departSpeed="0.00" departDelay="1.00" arrival="275.00" arrivalLane="53i_0" arrivalPos="10.00" arrivalSpeed="11.54" duration="92.00" routeLength="1015.10" waitSteps="0" timeLoss="16.06" rerouteNo="0" devices="tripinfo_down_73" vType="typeNS" speedFactor="1.00" vaporized=""/>
    <tripinfo id="up_72" depart="183.00" departLane="53o_0" departPos="5.10" departSpeed="0.00" departDelay="4.00" arrival="275.00" arrivalLane="54i_0" arrivalPos="10.00" arrivalSpeed="11.65" duration="92.00" routeLength="1015.10" waitSteps="0" timeLoss="15.63" rerouteNo="0" devices="tripinfo_up_72" vType="typeNS" speedFactor="1.00" vaporized=""/>
    <tripinfo id="up_75" depart="188.00" departLane="53o_0" departPos="5.10" departSpeed="0.00" departDelay="4.00" arrival="280.00" arrivalLane="54i_0" arrivalPos="10.00" arrivalSpeed="11.54" duration="92.00" routeLength="1015.10" waitSteps="0" timeLoss="15.81" rerouteNo="0" devices="tripinfo_up_75" vType="typeNS" speedFactor="1.00" vaporized=""/>
    <tripinfo id="left_67" depart="171.00" departLane="52o_0" departPos="5.10" departSpeed="0.00" departDelay="3.00" arrival="289.00" arrivalLane="51i_0" arrivalPos="10.00" arrivalSpeed="10.73" duration="118.00" routeLength="1015.10" waitSteps="16" timeLoss="42.07" rerouteNo="0" devices="tripinfo_left_67" vType="typeWE" speedFactor="1.00" vaporized=""/>
    <tripinfo id="right_55" depart="148.00" departLane="51o_0" departPos="5.10" departSpeed="0.00" departDelay="0.00" arrival="289.00" arrivalLane="52i_0" arrivalPos="10.00" arrivalSpeed="11.56" duration="141.00" routeLength="1015.10" waitSteps="39" timeLoss="64.61" rerouteNo="0" devices="tripinfo_right_55" vType="typeWE" speedFactor="1.00" vaporized=""/>
    <tripinfo id="right_56" depart="153.00" departLane="51o_0" departPos="5.10" departSpeed="0.00" departDelay="4.00" arrival="291.00" arrivalLane="52i_0" arrivalPos="10.00" arrivalSpeed="11.64" duration="138.00" routeLength="1015.10" waitSteps="35" timeLoss="61.65" rerouteNo="0" devices="tripinfo_right_56" vType="typeWE" speedFactor="1.00" vaporized=""/>
    <tripinfo id="left_69" depart="176.00" departLane="52o_0" departPos="5.10" departSpeed="0.00" departDelay="2.00" arrival="292.00" arrivalLane="51i_0" arrivalPos="10.00" arrivalSpeed="11.30" duration="116.00" routeLength="1015.10" waitSteps="12" timeLoss="39.53" rerouteNo="0" devices="tripinfo_left_69" vType="typeWE" speedFactor="1.00" vaporized=""/>
    <tripinfo id="right_58" depart="158.00" departLane="51o_0" departPos="5.10" departSpeed="0.00" departDelay="4.00" arrival="293.00" arrivalLane="52i_0" arrivalPos="10.00" arrivalSpeed="11.56" duration="135.00" routeLength="1015.10" waitSteps="31" timeLoss="58.85" rerouteNo="0" devices="tripinfo_right_58" vType="typeWE" speedFactor="1.00" vaporized=""/>
    <tripinfo id="left_70" depart="181.00" departLane="52o_0" departPos="5.10" departSpeed="0.00" departDelay="4.00" arrival="294.00" arrivalLane="51i_0" arrivalPos="10.00" arrivalSpeed="11.30" duration="113.00" routeLength="1015.10" waitSteps="8" timeLoss="36.74" rerouteNo="0" devices="tripinfo_left_70" vType="typeWE" speedFactor="1.00" vaporized=""/>
    <tripinfo id="right_59" depart="163.00" departLane="51o_0" departPos="5.10" departSpeed="0.00" departDelay="7.00" arrival="296.00" arrivalLane="52i_0" arrivalPos="10.00" arrivalSpeed="11.47" duration="133.00" routeLength="1015.10" waitSteps="28" timeLoss="56.43" rerouteNo="0" devices="tripinfo_right_59" vType="typeWE" speedFactor="1.00" vaporized=""/>
    <tripinfo id="left_74" depart="186.00" departLane="52o_0" departPos="5.10" departSpeed="0.00" departDelay="2.00" arrival="296.00" arrivalLane="51i_0" arrivalPos="10.00" arrivalSpeed="11.38" duration="110.00" routeLength="1015.10" waitSteps="6" timeLoss="33.86" rerouteNo="0" devices="tripinfo_left_74" vType="typeWE" speedFactor="1.00" vaporized=""/>
    <tripinfo id="right_62" depart="168.00" departLane="51o_0" departPos="5.10" departSpeed="0.00" departDelay="10.00" arrival="297.00" arrivalLane="52i_0" arrivalPos="10.00" arrivalSpeed="10.98" duration="129.00" routeLength="1015.10" waitSteps="26" timeLoss="52.97" rerouteNo="0" devices="tripinfo_right_62" vType="typeWE" speedFactor="1.00" vaporized=""/>
    <tripinfo id="left_78" depart="191.00" departLane="52o_0" departPos="5.10" departSpeed="0.00" departDelay="2.00" arrival="298.00" arrivalLane="51i_0" arrivalPos="10.00" arrivalSpeed="11.69" duration="107.00" routeLength="1015.10" waitSteps="1" timeLoss="30.71" rerouteNo="0" devices="tripinfo_left_78" vType="typeWE" speedFactor="1.00" vaporized=""/>
    <tripinfo id="right_66" depart="174.00" departLane="51o_0" departPos="5.10" departSpeed="0.00" departDelay="8.00" arrival="299.00" arrivalLane="52i_0" arrivalPos="10.00" arrivalSpeed="11.70" duration="125.00" routeLength="1015.10" waitSteps="22" timeLoss="49.15" rerouteNo="0" devices="tripinfo_right_66" vType="typeWE" speedFactor="1.00" vaporized=""/>
    <tripinfo id="left_80" depart="196.00" departLane="52o_0" departPos="5.10" departSpeed="0.00" departDelay="5.00" arrival="300.00" arrivalLane="51i_0" arrivalPos="10.00" arrivalSpeed="11.61" duration="104.00" routeLength="1015.10" waitSteps="1" timeLoss="27.51" rerouteNo="0" devices="tripinfo_left_80" vType="typeWE" speedFactor="1.00" vaporized=""/>
    <tripinfo id="right_68" depart="180.00" departLane="51o_0" departPos="5.10" departSpeed="0.00" departDelay="8.00" arrival="302.00" arrivalLane="52i_0" arrivalPos="10.00" arrivalSpeed="11.66" duration="122.00" routeLength="1015.10" waitSteps="16" timeLoss="46.02" rerouteNo="0" devices="tripinfo_right_68" vType="typeWE" speedFactor="1.00" vaporized=""/>
    <tripinfo id="right_76" depart="185.00" departLane="51o_0" departPos="5.10" departSpeed="0.00" departDelay="0.00" arrival="305.00" arrivalLane="52i_0" arrivalPos="10.00" arrivalSpeed="11.45" duration="120.00" routeLength="1015.10" waitSteps="14" timeLoss="43.42" rerouteNo="0" devices="tripinfo_right_76" vType="typeWE" speedFactor="1.00" vaporized=""/>
    <tripinfo id="right_77" depart="190.00" departLane="51o_0" departPos="5.10" departSpeed="0.00" departDelay="4.00" arrival="306.00" arrivalLane="52i_0" arrivalPos="10.00" arrivalSpeed="11.63" duration="116.00" routeLength="1015.10" waitSteps="9" timeLoss="40.17" rerouteNo="0" devices="tripinfo_right_77" vType="typeWE" speedFactor="1.00" vaporized=""/>
    <tripinfo id="right_79" depart="195.00" departLane="51o_0" departPos="5.10" departSpeed="0.00" departDelay="5.00" arrival="308.00" arrivalLane="52i_0" arrivalPos="10.00" arrivalSpeed="11.52" duration="113.00" routeLength="1015.10" waitSteps="5" timeLoss="36.80" rerouteNo="0" devices="tripinfo_right_79" vType="typeWE" speedFactor="1.00" vaporized=""/>