<?xml version="1.0" encoding="UTF-8"?>

<!-- generated on Mon Apr 30 16:22:13 2018 by SUMO Version 0.32.0
<?xml version="1.0" encoding="UTF-8"?>

<configuration xmlns:xsi="http://www.w3.org/2001/XMLSchema-instance" xsi:noNamespaceSchemaLocation="http://sumo.dlr.de/xsd/sumoConfiguration.xsd">

    <input>
        <net-file value="data/cross.net.xml"/>
        <route-files value="data/cross.rou.xml"/>
        <additional-files value="data/cross.det.xml"/>
    </input>

    <output>
        <summary-output value="data/cross.out"/>
        <tripinfo-output value="output/tripinfo239.xml"/>
    </output>

    <time>
        <begin value="0"/>
    </time>

    <report>
        <verbose value="true"/>
        <duration-log.statistics value="true"/>
        <no-step-log value="true"/>
    </report>

    <traci_server>
        <remote-port value="42456"/>
    </traci_server>

</configuration>
-->

<tripinfos xmlns:xsi="http://www.w3.org/2001/XMLSchema-instance" xsi:noNamespaceSchemaLocation="http://sumo.dlr.de/xsd/tripinfo_file.xsd">
    <tripinfo id="left_0" depart="0.00" departLane="52o_0" departPos="5.10" departSpeed="0.00" departDelay="0.00" arrival="91.00" arrivalLane="51i_0" arrivalPos="10.00" arrivalSpeed="11.53" duration="91.00" routeLength="1015.10" waitSteps="0" timeLoss="14.21" rerouteNo="0" devices="tripinfo_left_0" vType="typeWE" speedFactor="1.00" vaporized=""/>
    <tripinfo id="left_1" depart="5.00" departLane="52o_0" departPos="5.10" departSpeed="0.00" departDelay="0.00" arrival="97.00" arrivalLane="51i_0" arrivalPos="10.00" arrivalSpeed="11.26" duration="92.00" routeLength="1015.10" waitSteps="0" timeLoss="15.78" rerouteNo="0" devices="tripinfo_left_1" vType="typeWE" speedFactor="1.00" vaporized=""/>
    <tripinfo id="down_3" depart="6.00" departLane="54o_0" departPos="5.10" departSpeed="0.00" departDelay="0.00" arrival="99.00" arrivalLane="53i_0" arrivalPos="10.00" arrivalSpeed="11.43" duration="93.00" routeLength="1015.10" waitSteps="0" timeLoss="16.48" rerouteNo="0" devices="tripinfo_down_3" vType="typeNS" speedFactor="1.00" vaporized=""/>
    <tripinfo id="down_4" depart="11.00" departLane="54o_0" departPos="5.10" departSpeed="0.00" departDelay="4.00" arrival="102.00" arrivalLane="53i_0" arrivalPos="10.00" arrivalSpeed="11.84" duration="91.00" routeLength="1015.10" waitSteps="0" timeLoss="14.67" rerouteNo="0" devices="tripinfo_down_4" vType="typeNS" speedFactor="1.00" vaporized=""/>
    <tripinfo id="up_2" depart="5.00" departLane="53o_0" departPos="5.10" departSpeed="0.00" departDelay="0.00" arrival="105.00" arrivalLane="54i_0" arrivalPos="10.00" arrivalSpeed="11.55" duration="100.00" routeLength="1015.10" waitSteps="0" timeLoss="23.45" rerouteNo="0" devices="tripinfo_up_2" vType="typeNS" speedFactor="1.00" vaporized=""/>
    <tripinfo id="up_5" depart="17.00" departLane="53o_0" departPos="5.10" departSpeed="0.00" departDelay="0.00" arrival="108.00" arrivalLane="54i_0" arrivalPos="10.00" arrivalSpeed="11.57" duration="91.00" routeLength="1015.10" waitSteps="0" timeLoss="14.88" rerouteNo="0" devices="tripinfo_up_5" vType="typeNS" speedFactor="1.00" vaporized=""/>
    <tripinfo id="up_6" depart="22.00" departLane="53o_0" departPos="5.10" departSpeed="0.00" departDelay="4.00" arrival="113.00" arrivalLane="54i_0" arrivalPos="10.00" arrivalSpeed="11.61" duration="91.00" routeLength="1015.10" waitSteps="0" timeLoss="14.90" rerouteNo="0" devices="tripinfo_up_6" vType="typeNS" speedFactor="1.00" vaporized=""/>
    <tripinfo id="down_7" depart="22.00" departLane="54o_0" departPos="5.10" departSpeed="0.00" departDelay="0.00" arrival="114.00" arrivalLane="53i_0" arrivalPos="10.00" arrivalSpeed="11.61" duration="92.00" routeLength="1015.10" waitSteps="0" timeLoss="15.53" rerouteNo="0" devices="tripinfo_down_7" vType="typeNS" speedFactor="1.00" vaporized=""/>
    <tripinfo id="up_10" depart="27.00" departLane="53o_0" departPos="5.10" departSpeed="0.00" departDelay="1.00" arrival="118.00" arrivalLane="54i_0" arrivalPos="10.00" arrivalSpeed="11.29" duration="91.00" routeLength="1015.10" waitSteps="0" timeLoss="14.27" rerouteNo="0" devices="tripinfo_up_10" vType="typeNS" speedFactor="1.00" vaporized=""/>
    <tripinfo id="down_8" depart="27.00" departLane="54o_0" departPos="5.10" departSpeed="0.00" departDelay="2.00" arrival="119.00" arrivalLane="53i_0" arrivalPos="10.00" arrivalSpeed="11.31" duration="92.00" routeLength="1015.10" waitSteps="0" timeLoss="15.71" rerouteNo="0" devices="tripinfo_down_8" vType="typeNS" speedFactor="1.00" vaporized=""/>
    <tripinfo id="down_9" depart="33.00" departLane="54o_0" departPos="5.10" departSpeed="0.00" departDelay="7.00" arrival="124.00" arrivalLane="53i_0" arrivalPos="10.00" arrivalSpeed="11.66" duration="91.00" routeLength="1015.10" waitSteps="0" timeLoss="14.23" rerouteNo="0" devices="tripinfo_down_9" vType="typeNS" speedFactor="1.00" vaporized=""/>
    <tripinfo id="up_14" depart="38.00" departLane="53o_0" departPos="5.10" departSpeed="0.00" departDelay="0.00" arrival="130.00" arrivalLane="54i_0" arrivalPos="10.00" arrivalSpeed="11.58" duration="92.00" routeLength="1015.10" waitSteps="0" timeLoss="15.26" rerouteNo="0" devices="tripinfo_up_14" vType="typeNS" speedFactor="1.00" vaporized=""/>
    <tripinfo id="up_15" depart="43.00" departLane="53o_0" departPos="5.10" departSpeed="0.00" departDelay="2.00" arrival="135.00" arrivalLane="54i_0" arrivalPos="10.00" arrivalSpeed="11.48" duration="92.00" routeLength="1015.10" waitSteps="0" timeLoss="15.98" rerouteNo="0" devices="tripinfo_up_15" vType="typeNS" speedFactor="1.00" vaporized=""/>
    <tripinfo id="left_11" depart="28.00" departLane="52o_0" departPos="5.10" departSpeed="0.00" departDelay="0.00" arrival="144.00" arrivalLane="51i_0" arrivalPos="10.00" arrivalSpeed="11.57" duration="116.00" routeLength="1015.10" waitSteps="15" timeLoss="40.19" rerouteNo="0" devices="tripinfo_left_11" vType="typeWE" speedFactor="1.00" vaporized=""/>
    <tripinfo id="right_13" depart="30.00" departLane="51o_0" departPos="5.10" departSpeed="0.00" departDelay="0.00" arrival="144.00" arrivalLane="52i_0" arrivalPos="10.00" arrivalSpeed="11.72" duration="114.00" routeLength="1015.10" waitSteps="11" timeLoss="38.18" rerouteNo="0" devices="tripinfo_right_13" vType="typeWE" speedFactor="1.00" vaporized=""/>
    <tripinfo id="left_12" depart="33.00" departLane="52o_0" departPos="5.10" departSpeed="0.00" departDelay="4.00" arrival="146.00" arrivalLane="51i_0" arrivalPos="10.00" arrivalSpeed="11.45" duration="113.00" routeLength="1015.10" waitSteps="11" timeLoss="36.98" rerouteNo="0" devices="tripinfo_left_12" vType="typeWE" speedFactor="1.00" vaporized=""/>
    <tripinfo id="right_17" depart="54.00" departLane="51o_0" departPos="5.10" departSpeed="0.00" departDelay="0.00" arrival="146.00" arrivalLane="52i_0" arrivalPos="10.00" arrivalSpeed="11.47" duration="92.00" routeLength="1015.10" waitSteps="0" timeLoss="15.73" rerouteNo="0" devices="tripinfo_right_17" vType="typeWE" speedFactor="1.00" vaporized=""/>
    <tripinfo id="left_16" depart="45.00" departLane="52o_0" departPos="5.10" departSpeed="0.00" departDelay="0.00" arrival="148.00" arrivalLane="51i_0" arrivalPos="10.00" arrivalSpeed="11.25" duration="103.00" routeLength="1015.10" waitSteps="0" timeLoss="26.72" rerouteNo="0" devices="tripinfo_left_16" vType="typeWE" speedFactor="1.00" vaporized=""/>
    <tripinfo id="down_18" depart="60.00" departLane="54o_0" departPos="5.10" departSpeed="0.00" departDelay="0.00" arrival="151.00" arrivalLane="53i_0" arrivalPos="10.00" arrivalSpeed="11.62" duration="91.00" routeLength="1015.10" waitSteps="0" timeLoss="14.67" rerouteNo="0" devices="tripinfo_down_18" vType="typeNS" speedFactor="1.00" vaporized=""/>
    <tripinfo id="left_19" depart="64.00" departLane="52o_0" departPos="5.10" departSpeed="0.00" departDelay="0.00" arrival="156.00" arrivalLane="51i_0" arrivalPos="10.00" arrivalSpeed="11.45" duration="92.00" routeLength="1015.10" waitSteps="0" timeLoss="15.21" rerouteNo="0" devices="tripinfo_left_19" vType="typeWE" speedFactor="1.00" vaporized=""/>
    <tripinfo id="left_22" depart="69.00" departLane="52o_0" departPos="5.10" departSpeed="0.00" departDelay="0.00" arrival="160.00" arrivalLane="51i_0" arrivalPos="10.00" arrivalSpeed="10.78" duration="91.00" routeLength="1015.10" waitSteps="0" timeLoss="14.81" rerouteNo="0" devices="tripinfo_left_22" vType="typeWE" speedFactor="1.00" vaporized=""/>
    <tripinfo id="left_26" depart="74.00" departLane="52o_0" departPos="5.10" departSpeed="0.00" departDelay="0.00" arrival="167.00" arrivalLane="51i_0" arrivalPos="10.00" arrivalSpeed="11.67" duration="93.00" routeLength="1015.10" waitSteps="1" timeLoss="16.95" rerouteNo="0" devices="tripinfo_left_26" vType="typeWE" speedFactor="1.00" vaporized=""/>
    <tripinfo id="down_20" depart="67.00" departLane="54o_0" departPos="5.10" departSpeed="0.00" departDelay="0.00" arrival="176.00" arrivalLane="53i_0" arrivalPos="10.00" arrivalSpeed="11.30" duration="109.00" routeLength="1015.10" waitSteps="8" timeLoss="32.48" rerouteNo="0" devices="tripinfo_down_20" vType="typeNS" speedFactor="1.00" vaporized=""/>
    <tripinfo id="up_21" depart="68.00" departLane="53o_0" departPos="5.10" departSpeed="0.00" departDelay="0.00" arrival="177.00" arrivalLane="54i_0" arrivalPos="10.00" arrivalSpeed="11.50" duration="109.00" routeLength="1015.10" waitSteps="6" timeLoss="32.46" rerouteNo="0" devices="tripinfo_up_21" vType="typeNS" speedFactor="1.00" vaporized=""/>
    <tripinfo id="down_23" depart="72.00" departLane="54o_0" departPos="5.10" departSpeed="0.00" departDelay="3.00" arrival="178.00" arrivalLane="53i_0" arrivalPos="10.00" arrivalSpeed="11.41" duration="106.00" routeLength="1015.10" waitSteps="3" timeLoss="29.70" rerouteNo="0" devices="tripinfo_down_23" vType="typeNS" speedFactor="1.00" vaporized=""/>
    <tripinfo id="up_24" depart="73.00" departLane="53o_0" departPos="5.10" departSpeed="0.00" departDelay="4.00" arrival="179.00" arrivalLane="54i_0" arrivalPos="10.00" arrivalSpeed="11.23" duration="106.00" routeLength="1015.10" waitSteps="3" timeLoss="29.43" rerouteNo="0" devices="tripinfo_up_24" vType="typeNS" speedFactor="1.00" vaporized=""/>
    <tripinfo id="up_28" depart="81.00" departLane="53o_0" departPos="5.10" departSpeed="0.00" departDelay="0.00" arrival="180.00" arrivalLane="54i_0" arrivalPos="10.00" arrivalSpeed="10.93" duration="99.00" routeLength="1015.10" waitSteps="0" timeLoss="23.05" rerouteNo="0" devices="tripinfo_up_28" vType="typeNS" speedFactor="1.00" vaporized=""/>
    <tripinfo id="down_25" depart="77.00" departLane="54o_0" departPos="5.10" departSpeed="0.00" departDelay="5.00" arrival="180.00" arrivalLane="53i_0" arrivalPos="10.00" arrivalSpeed="11.53" duration="103.00" routeLength="1015.10" waitSteps="1" timeLoss="27.13" rerouteNo="0" devices="tripinfo_down_25" vType="typeNS" speedFactor="1.00" vaporized=""/>
    <tripinfo id="down_27" depart="82.00" departLane="54o_0" departPos="5.10" departSpeed="0.00" departDelay="7.00" arrival="182.00" arrivalLane="53i_0" arrivalPos="10.00" arrivalSpeed="11.24" duration="100.00" routeLength="1015.10" waitSteps="0" timeLoss="24.05" rerouteNo="0" devices="tripinfo_down_27" vType="typeNS" speedFactor="1.00" vaporized=""/>
    <tripinfo id="up_29" depart="86.00" departLane="53o_0" departPos="5.10" departSpeed="0.00" departDelay="2.00" arrival="182.00" arrivalLane="54i_0" arrivalPos="10.00" arrivalSpeed="11.50" duration="96.00" routeLength="1015.10" waitSteps="0" timeLoss="20.13" rerouteNo="0" devices="tripinfo_up_29" vType="typeNS" speedFactor="1.00" vaporized=""/>
    <tripinfo id="right_30" depart="86.00" departLane="51o_0" departPos="5.10" departSpeed="0.00" departDelay="0.00" arrival="189.00" arrivalLane="52i_0" arrivalPos="10.00" arrivalSpeed="11.51" duration="103.00" routeLength="1015.10" waitSteps="2" timeLoss="26.50" rerouteNo="0" devices="tripinfo_right_30" vType="typeWE" speedFactor="1.00" vaporized=""/>
    <tripinfo id="right_31" depart="91.00" departLane="51o_0" departPos="5.10" departSpeed="0.00" departDelay="0.00" arrival="190.00" arrivalLane="52i_0" arrivalPos="10.00" arrivalSpeed="11.06" duration="99.00" routeLength="1015.10" waitSteps="0" timeLoss="23.02" rerouteNo="0" devices="tripinfo_right_31" vType="typeWE" speedFactor="1.00" vaporized=""/>
    <tripinfo id="right_33" depart="101.00" departLane="51o_0" departPos="5.10" departSpeed="0.00" departDelay="0.00" arrival="192.00" arrivalLane="52i_0" arrivalPos="10.00" arrivalSpeed="11.53" duration="91.00" routeLength="1015.10" waitSteps="0" timeLoss="14.94" rerouteNo="0" devices="tripinfo_right_33" vType="typeWE" speedFactor="1.00" vaporized=""/>
    <tripinfo id="left_34" depart="102.00" departLane="52o_0" departPos="5.10" departSpeed="0.00" departDelay="0.00" arrival="193.00" arrivalLane="51i_0" arrivalPos="10.00" arrivalSpeed="11.49" duration="91.00" routeLength="1015.10" waitSteps="0" timeLoss="14.22" rerouteNo="0" devices="tripinfo_left_34" vType="typeWE" speedFactor="1.00" vaporized=""/>
    <tripinfo id="left_36" depart="107.00" departLane="52o_0" departPos="5.10" departSpeed="0.00" departDelay="3.00" arrival="198.00" arrivalLane="51i_0" arrivalPos="10.00" arrivalSpeed="11.58" duration="91.00" routeLength="1015.10" waitSteps="0" timeLoss="14.92" rerouteNo="0" devices="tripinfo_left_36" vType="typeWE" speedFactor="1.00" vaporized=""/>
    <tripinfo id="down_35" depart="102.00" departLane="54o_0" departPos="5.10" departSpeed="0.00" departDelay="0.00" arrival="207.00" arrivalLane="53i_0" arrivalPos="10.00" arrivalSpeed="10.88" duration="105.00" routeLength="1015.10" waitSteps="4" timeLoss="29.03" rerouteNo="0" devices="tripinfo_down_35" vType="typeNS" speedFactor="1.00" vaporized=""/>
    <tripinfo id="up_32" depart="99.00" departLane="53o_0" departPos="5.10" departSpeed="0.00" departDelay="2.00" arrival="207.00" arrivalLane="54i_0" arrivalPos="10.00" arrivalSpeed="11.18" duration="108.00" routeLength="1015.10" waitSteps="6" timeLoss="32.18" rerouteNo="0" devices="tripinfo_up_32" vType="typeNS" speedFactor="1.00" vaporized=""/>
    <tripinfo id="down_37" depart="113.00" departLane="54o_0" departPos="5.10" departSpeed="0.00" departDelay="1.00" arrival="209.00" arrivalLane="53i_0" arrivalPos="10.00" arrivalSpeed="11.18" duration="96.00" routeLength="1015.10" waitSteps="0" timeLoss="20.08" rerouteNo="0" devices="tripinfo_down_37" vType="typeNS" speedFactor="1.00" vaporized=""/>
    <tripinfo id="right_38" depart="120.00" departLane="51o_0" departPos="5.10" departSpeed="0.00" departDelay="0.00" arrival="211.00" arrivalLane="52i_0" arrivalPos="10.00" arrivalSpeed="11.19" duration="91.00" routeLength="1015.10" waitSteps="0" timeLoss="15.00" rerouteNo="0" devices="tripinfo_right_38" vType="typeWE" speedFactor="1.00" vaporized=""/>
    <tripinfo id="left_39" depart="130.00" departLane="52o_0" departPos="5.10" departSpeed="0.00" departDelay="0.00" arrival="221.00" arrivalLane="51i_0" arrivalPos="10.00" arrivalSpeed="11.53" duration="91.00" routeLength="1015.10" waitSteps="0" timeLoss="14.29" rerouteNo="0" devices="tripinfo_left_39" vType="typeWE" speedFactor="1.00" vaporized=""/>
    <tripinfo id="right_40" depart="132.00" departLane="51o_0" departPos="5.10" departSpeed="0.00" departDelay="0.00" arrival="224.00" arrivalLane="52i_0" arrivalPos="10.00" arrivalSpeed="11.56" duration="92.00" routeLength="1015.10" waitSteps="0" timeLoss="15.23" rerouteNo="0" devices="tripinfo_right_40" vType="typeWE" speedFactor="1.00" vaporized=""/>
    <tripinfo id="left_41" depart="135.00" departLane="52o_0" departPos="5.10" departSpeed="0.00" departDelay="3.00" arrival="226.00" arrivalLane="51i_0" arrivalPos="10.00" arrivalSpeed="11.24" duration="91.00" routeLength="1015.10" waitSteps="0" timeLoss="14.71" rerouteNo="0" devices="tripinfo_left_41" vType="typeWE" speedFactor="1.00" vaporized=""/>
    <tripinfo id="right_43" depart="138.00" departLane="51o_0" departPos="5.10" departSpeed="0.00" departDelay="0.00" arrival="229.00" arrivalLane="52i_0" arrivalPos="10.00" arrivalSpeed="11.70" duration="91.00" routeLength="1015.10" waitSteps="0" timeLoss="14.82" rerouteNo="0" devices="tripinfo_right_43" vType="typeWE" speedFactor="1.00" vaporized=""/>
    <tripinfo id="right_44" depart="144.00" departLane="51o_0" departPos="5.10" departSpeed="0.00" departDelay="3.00" arrival="235.00" arrivalLane="52i_0" arrivalPos="10.00" arrivalSpeed="11.79" duration="91.00" routeLength="1015.10" waitSteps="0" timeLoss="14.51" rerouteNo="0" devices="tripinfo_right_44" vType="typeWE" speedFactor="1.00" vaporized=""/>
    <tripinfo id="left_45" depart="147.00" departLane="52o_0" departPos="5.10" departSpeed="0.00" departDelay="0.00" arrival="238.00" arrivalLane="51i_0" arrivalPos="10.00" arrivalSpeed="11.34" duration="91.00" routeLength="1015.10" waitSteps="0" timeLoss="14.96" rerouteNo="0" devices="tripinfo_left_45" vType="typeWE" speedFactor="1.00" vaporized=""/>
    <tripinfo id="up_46" depart="148.00" departLane="53o_0" departPos="5.10" departSpeed="0.00" departDelay="0.00" arrival="241.00" arrivalLane="54i_0" arrivalPos="10.00" arrivalSpeed="11.74" duration="93.00" routeLength="1015.10" waitSteps="0" timeLoss="16.61" rerouteNo="0" devices="tripinfo_up_46" vType="typeNS" speedFactor="1.00" vaporized=""/>
    <tripinfo id="down_42" depart="137.00" departLane="54o_0" departPos="5.10" departSpeed="0.00" departDelay="0.00" arrival="249.00" arrivalLane="53i_0" arrivalPos="10.00" arrivalSpeed="11.31" duration="112.00" routeLength="1015.10" waitSteps="11" timeLoss="35.47" rerouteNo="0" devices="tripinfo_down_42" vType="typeNS" speedFactor="1.00" vaporized=""/>
    <tripinfo id="up_48" depart="158.00" departLane="53o_0" departPos="5.10" departSpeed="0.00" departDelay="0.00" arrival="249.00" arrivalLane="54i_0" arrivalPos="10.00" arrivalSpeed="11.70" duration="91.00" routeLength="1015.10" waitSteps="0" timeLoss="14.63" rerouteNo="0" devices="tripinfo_up_48" vType="typeNS" speedFactor="1.00" vaporized=""/>
    <tripinfo id="down_49" depart="161.00" departLane="54o_0" departPos="5.10" departSpeed="0.00" departDelay="0.00" arrival="253.00" arrivalLane="53i_0" arrivalPos="10.00" arrivalSpeed="11.53" duration="92.00" routeLength="1015.10" waitSteps="0" timeLoss="15.43" rerouteNo="0" devices="tripinfo_down_49" vType="typeNS" speedFactor="1.00" vaporized=""/>
    <tripinfo id="up_50" depart="164.00" departLane="53o_0" departPos="5.10" departSpeed="0.00" departDelay="0.00" arrival="255.00" arrivalLane="54i_0" arrivalPos="10.00" arrivalSpeed="11.28" duration="91.00" routeLength="1015.10" waitSteps="0" timeLoss="15.00" rerouteNo="0" devices="tripinfo_up_50" vType="typeNS" speedFactor="1.00" vaporized=""/>
    <tripinfo id="up_51" depart="169.00" departLane="53o_0" departPos="5.10" departSpeed="0.00" departDelay="3.00" arrival="260.00" arrivalLane="54i_0" arrivalPos="10.00" arrivalSpeed="11.67" duration="91.00" routeLength="1015.10" waitSteps="0" timeLoss="15.02" rerouteNo="0" devices="tripinfo_up_51" vType="typeNS" speedFactor="1.00" vaporized=""/>
    <tripinfo id="right_47" depart="157.00" departLane="51o_0" departPos="5.10" departSpeed="0.00" departDelay="0.00" arrival="270.00" arrivalLane="52i_0" arrivalPos="10.00" arrivalSpeed="11.23" duration="113.00" routeLength="1015.10" waitSteps="9" timeLoss="36.90" rerouteNo="0" devices="tripinfo_right_47" vType="typeWE" speedFactor="1.00" vaporized=""/>
    <tripinfo id="left_54" depart="180.00" departLane="52o_0" departPos="5.10" departSpeed="0.00" departDelay="0.00" arrival="271.00" arrivalLane="51i_0" arrivalPos="10.00" arrivalSpeed="11.53" duration="91.00" routeLength="1015.10" waitSteps="0" timeLoss="14.63" rerouteNo="0" devices="tripinfo_left_54" vType="typeWE" speedFactor="1.00" vaporized=""/>
    <tripinfo id="right_52" depart="167.00" departLane="51o_0" departPos="5.10" departSpeed="0.00" departDelay="0.00" arrival="272.00" arrivalLane="52i_0" arrivalPos="10.00" arrivalSpeed="11.30" duration="105.00" routeLength="1015.10" waitSteps="2" timeLoss="28.68" rerouteNo="0" devices="tripinfo_right_52" vType="typeWE" speedFactor="1.00" vaporized=""/>
    <tripinfo id="down_55" depart="182.00" departLane="54o_0" departPos="5.10" departSpeed="0.00" departDelay="1.00" arrival="273.00" arrivalLane="53i_0" arrivalPos="10.00" arrivalSpeed="11.42" duration="91.00" routeLength="1015.10" waitSteps="0" timeLoss="14.80" rerouteNo="0" devices="tripinfo_down_55" vType="typeNS" speedFactor="1.00" vaporized=""/>
    <tripinfo id="up_53" depart="178.00" departLane="53o_0" departPos="5.10" departSpeed="0.00" departDelay="7.00" arrival="275.00" arrivalLane="54i_0" arrivalPos="10.00" arrivalSpeed="11.53" duration="97.00" routeLength="1015.10" waitSteps="0" timeLoss="20.48" rerouteNo="0" devices="tripinfo_up_53" vType="typeNS" speedFactor="1.00" vaporized=""/>
    <tripinfo id="down_56" depart="187.00" departLane="54o_0" departPos="5.10" departSpeed="0.00" departDelay="1.00" arrival="278.00" arrivalLane="53i_0" arrivalPos="10.00" arrivalSpeed="11.27" duration="91.00" routeLength="1015.10" waitSteps="0" timeLoss="14.30" rerouteNo="0" devices="tripinfo_down_56" vType="typeNS" speedFactor="1.00" vaporized=""/>
    <tripinfo id="down_59" depart="192.00" departLane="54o_0" departPos="5.10" departSpeed="0.00" departDelay="0.00" arrival="283.00" arrivalLane="53i_0" arrivalPos="10.00" arrivalSpeed="11.87" duration="91.00" routeLength="1015.10" waitSteps="0" timeLoss="14.61" rerouteNo="0" devices="tripinfo_down_59" vType="typeNS" speedFactor="1.00" vaporized=""/>
    <tripinfo id="right_58" depart="193.00" departLane="51o_0" departPos="5.10" departSpeed="0.00" departDelay="1.00" arrival="285.00" arrivalLane="52i_0" arrivalPos="10.00" arrivalSpeed="11.18" duration="92.00" routeLength="1015.10" waitSteps="0" timeLoss="16.04" rerouteNo="0" devices="tripinfo_right_58" vType="typeWE" speedFactor="1.00" vaporized=""/>
    <tripinfo id="left_57" depart="190.00" departLane="52o_0" departPos="5.10" departSpeed="0.00" departDelay="3.00" arrival="290.00" arrivalLane="51i_0" arrivalPos="10.00" arrivalSpeed="11.64" duration="100.00" routeLength="1015.10" waitSteps="0" timeLoss="24.15" rerouteNo="0" devices="tripinfo_left_57" vType="typeWE" speedFactor="1.00" vaporized=""/>
    <tripinfo id="right_60" depart="198.00" departLane="51o_0" departPos="5.10" departSpeed="0.00" departDelay="5.00" arrival="290.00" arrivalLane="52i_0" arrivalPos="10.00" arrivalSpeed="11.24" duration="92.00" routeLength="1015.10" waitSteps="1" timeLoss="15.18" rerouteNo="0" devices="tripinfo_right_60" vType="typeWE" speedFactor="1.00" vaporized=""/>
    <tripinfo id="left_61" depart="200.00" departLane="52o_0" departPos="5.10" departSpeed="0.00" departDelay="0.00" arrival="292.00" arrivalLane="51i_0" arrivalPos="10.00" arrivalSpeed="11.65" duration="92.00" routeLength="1015.10" waitSteps="0" timeLoss="16.06" rerouteNo="0" devices="tripinfo_left_61" vType="typeWE" speedFactor="1.00" vaporized=""/>
    <tripinfo id="left_62" depart="205.00" departLane="52o_0" departPos="5.10" departSpeed="0.00" departDelay="4.00" arrival="296.00" arrivalLane="51i_0" arrivalPos="10.00" arrivalSpeed="11.47" duration="91.00" routeLength="1015.10" waitSteps="0" timeLoss="14.87" rerouteNo="0" devices="tripinfo_left_62" vType="typeWE" speedFactor="1.00" vaporized=""/>
    <tripinfo id="down_63" depart="209.00" departLane="54o_0" departPos="5.10" departSpeed="0.00" departDelay="0.00" arrival="300.00" arrivalLane="53i_0" arrivalPos="10.00" arrivalSpeed="11.76" duration="91.00" routeLength="1015.10" waitSteps="0" timeLoss="14.81" rerouteNo="0" devices="tripinfo_down_63" vType="typeNS" speedFactor="1.00" vaporized=""/>
    <tripinfo id="up_64" depart="211.00" departLane="53o_0" departPos="5.10" departSpeed="0.00" departDelay="0.00" arrival="302.00" arrivalLane="54i_0" arrivalPos="10.00" arrivalSpeed="11.35" duration="91.00" routeLength="1015.10" waitSteps="0" timeLoss="15.06" rerouteNo="0" devices="tripinfo_up_64" vType="typeNS" speedFactor="1.00" vaporized=""/>
    <tripinfo id="up_65" depart="216.00" departLane="53o_0" departPos="5.10" departSpeed="0.00" departDelay="4.00" arrival="308.00" arrivalLane="54i_0" arrivalPos="10.00" arrivalSpeed="11.68" duration="92.00" routeLength="1015.10" waitSteps="0" timeLoss="15.88" rerouteNo="0" devices="tripinfo_up_65" vType="typeNS" speedFactor="1.00" vaporized=""/>
    <tripinfo id="right_66" depart="222.00" departLane="51o_0" departPos="5.10" departSpeed="0.00" departDelay="0.00" arrival="314.00" arrivalLane="52i_0" arrivalPos="10.00" arrivalSpeed="11.60" duration="92.00" routeLength="1015.10" waitSteps="0" timeLoss="15.77" rerouteNo="0" devices="tripinfo_right_66" vType="typeWE" speedFactor="1.00" vaporized=""/>
    <tripinfo id="down_67" depart="223.00" departLane="54o_0" departPos="5.10" departSpeed="0.00" departDelay="0.00" arrival="315.00" arrivalLane="53i_0" arrivalPos="10.00" arrivalSpeed="11.10" duration="92.00" routeLength="1015.10" waitSteps="0" timeLoss="15.82" rerouteNo="0" devices="tripinfo_down_67" vType="typeNS" speedFactor="1.00" vaporized=""/>
    <tripinfo id="up_69" depart="226.00" departLane="53o_0" departPos="5.10" departSpeed="0.00" departDelay="0.00" arrival="317.00" arrivalLane="54i_0" arrivalPos="10.00" arrivalSpeed="11.69" duration="91.00" routeLength="1015.10" waitSteps="0" timeLoss="14.79" rerouteNo="0" devices="tripinfo_up_69" vType="typeNS" speedFactor="1.00" vaporized=""/>
    <tripinfo id="down_68" depart="228.00" departLane="54o_0" departPos="5.10" departSpeed="0.00" departDelay="2.00" arrival="318.00" arrivalLane="53i_0" arrivalPos="10.00" arrivalSpeed="11.69" duration="90.00" routeLength="1015.10" waitSteps="0" timeLoss="14.07" rerouteNo="0" devices="tripinfo_down_68" vType="typeNS" speedFactor="1.00" vaporized=""/>
    <tripinfo id="up_70" depart="231.00" departLane="53o_0" departPos="5.10" departSpeed="0.00" departDelay="2.00" arrival="323.00" arrivalLane="54i_0" arrivalPos="10.00" arrivalSpeed="11.18" duration="92.00" routeLength="1015.10" waitSteps="0" timeLoss="15.66" rerouteNo="0" devices="tripinfo_up_70" vType="typeNS" speedFactor="1.00" vaporized=""/>
    <tripinfo id="down_71" depart="233.00" departLane="54o_0" departPos="5.10" departSpeed="0.00" departDelay="1.00" arrival="325.00" arrivalLane="53i_0" arrivalPos="10.00" arrivalSpeed="11.63" duration="92.00" routeLength="1015.10" waitSteps="0" timeLoss="15.96" rerouteNo="0" devices="tripinfo_down_71" vType="typeNS" speedFactor="1.00" vaporized=""/>
    <tripinfo id="left_72" depart="236.00" departLane="52o_0" departPos="5.10" departSpeed="0.00" departDelay="0.00" arrival="327.00" arrivalLane="51i_0" arrivalPos="10.00" arrivalSpeed="11.66" duration="91.00" routeLength="1015.10" waitSteps="0" timeLoss="14.64" rerouteNo="0" devices="tripinfo_left_72" vType="typeWE" speedFactor="1.00" vaporized=""/>
    <tripinfo id="left_73" depart="244.00" departLane="52o_0" departPos="5.10" departSpeed="0.00" departDelay="0.00" arrival="335.00" arrivalLane="51i_0" arrivalPos="10.00" arrivalSpeed="11.30" duration="91.00" routeLength="1015.10" waitSteps="0" timeLoss="14.70" rerouteNo="0" devices="tripinfo_left_73" vType="typeWE" speedFactor="1.00" vaporized=""/>
    <tripinfo id="right_74" depart="245.00" departLane="51o_0" departPos="5.10" departSpeed="0.00" departDelay="0.00" arrival="336.00" arrivalLane="52i_0" arrivalPos="10.00" arrivalSpeed="11.39" duration="91.00" routeLength="1015.10" waitSteps="0" timeLoss="14.77" rerouteNo="0" devices="tripinfo_right_74" vType="typeWE" speedFactor="1.00" vaporized=""/>
    <tripinfo id="right_75" depart="250.00" departLane="51o_0" departPos="5.10" departSpeed="0.00" departDelay="3.00" arrival="342.00" arrivalLane="52i_0" arrivalPos="10.00" arrivalSpeed="11.66" duration="92.00" routeLength="1015.10" waitSteps="0" timeLoss="15.25" rerouteNo="0" devices="tripinfo_right_75" vType="typeWE" speedFactor="1.00" vaporized=""/>
    <tripinfo id="right_77" depart="255.00" departLane="51o_0" departPos="5.10" departSpeed="0.00" departDelay="6.00" arrival="345.00" arrivalLane="52i_0" arrivalPos="10.00" arrivalSpeed="11.37" duration="90.00" routeLength="1015.10" waitSteps="0" timeLoss="13.88" rerouteNo="0" devices="tripinfo_right_77" vType="typeWE" speedFactor="1.00" vaporized=""/>
    <tripinfo id="left_81" depart="257.00" departLane="52o_0" departPos="5.10" departSpeed="0.00" departDelay="0.00" arrival="348.00" arrivalLane="51i_0" arrivalPos="10.00" arrivalSpeed="11.07" duration="91.00" routeLength="1015.10" waitSteps="0" timeLoss="14.81" rerouteNo="0" devices="tripinfo_left_81" vType="typeWE" speedFactor="1.00" vaporized=""/>
    <tripinfo id="right_78" depart="260.00" departLane="51o_0" departPos="5.10" departSpeed="0.00" departDelay="9.00" arrival="351.00" arrivalLane="52i_0" arrivalPos="10.00" arrivalSpeed="11.18" duration="91.00" routeLength="1015.10" waitSteps="0" timeLoss="14.98" rerouteNo="0" devices="tripinfo_right_78" vType="typeWE" speedFactor="1.00" vaporized=""/>
    <tripinfo id="right_83" depart="265.00" departLane="51o_0" departPos="5.10" departSpeed="0.00" departDelay="6.00" arrival="357.00" arrivalLane="52i_0" arrivalPos="10.00" arrivalSpeed="11.46" duration="92.00" routeLength="1015.10" waitSteps="0" timeLoss="15.97" rerouteNo="0" devices="tripinfo_right_83" vType="typeWE" speedFactor="1.00" vaporized=""/>
    <tripinfo id="right_84" depart="271.00" departLane="51o_0" departPos="5.10" departSpeed="0.00" departDelay="11.00" arrival="362.00" arrivalLane="52i_0" arrivalPos="10.00" arrivalSpeed="11.44" duration="91.00" routeLength="1015.10" waitSteps="0" timeLoss="14.73" rerouteNo="0" devices="tripinfo_right_84" vType="typeWE" speedFactor="1.00" vaporized=""/>
    <tripinfo id="left_89" depart="277.00" departLane="52o_0" departPos="5.10" departSpeed="0.00" departDelay="0.00" arrival="367.00" arrivalLane="51i_0" arrivalPos="10.00" arrivalSpeed="11.30" duration="90.00" routeLength="1015.10" waitSteps="0" timeLoss="14.02" rerouteNo="0" devices="tripinfo_left_89" vType="typeWE" speedFactor="1.00" vaporized=""/>