<?xml version="1.0" encoding="UTF-8"?>

<!-- generated on Mon Apr 30 16:38:03 2018 by SUMO Version 0.32.0
<?xml version="1.0" encoding="UTF-8"?>

<configuration xmlns:xsi="http://www.w3.org/2001/XMLSchema-instance" xsi:noNamespaceSchemaLocation="http://sumo.dlr.de/xsd/sumoConfiguration.xsd">

    <input>
        <net-file value="data/cross.net.xml"/>
        <route-files value="data/cross.rou.xml"/>
        <additional-files value="data/cross.det.xml"/>
    </input>

    <output>
        <summary-output value="data/cross.out"/>
        <tripinfo-output value="output/tripinfo91.xml"/>
    </output>

    <time>
        <begin value="0"/>
    </time>

    <report>
        <verbose value="true"/>
        <duration-log.statistics value="true"/>
        <no-step-log value="true"/>
    </report>

    <traci_server>
        <remote-port value="34823"/>
    </traci_server>

</configuration>
-->

<tripinfos xmlns:xsi="http://www.w3.org/2001/XMLSchema-instance" xsi:noNamespaceSchemaLocation="http://sumo.dlr.de/xsd/tripinfo_file.xsd">
    <tripinfo id="down_2" depart="3.00" departLane="54o_0" departPos="5.10" departSpeed="0.00" departDelay="0.00" arrival="94.00" arrivalLane="53i_0" arrivalPos="10.00" arrivalSpeed="11.63" duration="91.00" routeLength="1015.10" waitSteps="0" timeLoss="14.93" rerouteNo="0" devices="tripinfo_down_2" vType="typeNS" speedFactor="1.00" vaporized=""/>
    <tripinfo id="left_1" depart="3.00" departLane="52o_0" departPos="5.10" departSpeed="0.00" departDelay="0.00" arrival="116.00" arrivalLane="51i_0" arrivalPos="10.00" arrivalSpeed="10.96" duration="113.00" routeLength="1015.10" waitSteps="11" timeLoss="37.07" rerouteNo="0" devices="tripinfo_left_1" vType="typeWE" speedFactor="1.00" vaporized=""/>
    <tripinfo id="right_0" depart="1.00" departLane="51o_0" departPos="5.10" departSpeed="0.00" departDelay="0.00" arrival="116.00" arrivalLane="52i_0" arrivalPos="10.00" arrivalSpeed="11.46" duration="115.00" routeLength="1015.10" waitSteps="14" timeLoss="38.67" rerouteNo="0" devices="tripinfo_right_0" vType="typeWE" speedFactor="1.00" vaporized=""/>
    <tripinfo id="left_3" depart="8.00" departLane="52o_0" departPos="5.10" departSpeed="0.00" departDelay="2.00" arrival="118.00" arrivalLane="51i_0" arrivalPos="10.00" arrivalSpeed="11.46" duration="110.00" routeLength="1015.10" waitSteps="8" timeLoss="34.20" rerouteNo="0" devices="tripinfo_left_3" vType="typeWE" speedFactor="1.00" vaporized=""/>
    <tripinfo id="left_4" depart="13.00" departLane="52o_0" departPos="5.10" departSpeed="0.00" departDelay="1.00" arrival="121.00" arrivalLane="51i_0" arrivalPos="10.00" arrivalSpeed="11.36" duration="108.00" routeLength="1015.10" waitSteps="4" timeLoss="32.04" rerouteNo="0" devices="tripinfo_left_4" vType="typeWE" speedFactor="1.00" vaporized=""/>
    <tripinfo id="left_6" depart="20.00" departLane="52o_0" departPos="5.10" departSpeed="0.00" departDelay="0.00" arrival="123.00" arrivalLane="51i_0" arrivalPos="10.00" arrivalSpeed="11.48" duration="103.00" routeLength="1015.10" waitSteps="0" timeLoss="26.84" rerouteNo="0" devices="tripinfo_left_6" vType="typeWE" speedFactor="1.00" vaporized=""/>
    <tripinfo id="right_9" depart="36.00" departLane="51o_0" departPos="5.10" departSpeed="0.00" departDelay="0.00" arrival="128.00" arrivalLane="52i_0" arrivalPos="10.00" arrivalSpeed="11.58" duration="92.00" routeLength="1015.10" waitSteps="0" timeLoss="15.17" rerouteNo="0" devices="tripinfo_right_9" vType="typeWE" speedFactor="1.00" vaporized=""/>
    <tripinfo id="right_11" depart="41.00" departLane="51o_0" departPos="5.10" departSpeed="0.00" departDelay="1.00" arrival="134.00" arrivalLane="52i_0" arrivalPos="10.00" arrivalSpeed="11.43" duration="93.00" routeLength="1015.10" waitSteps="0" timeLoss="16.30" rerouteNo="0" devices="tripinfo_right_11" vType="typeWE" speedFactor="1.00" vaporized=""/>
    <tripinfo id="right_12" depart="46.00" departLane="51o_0" departPos="5.10" departSpeed="0.00" departDelay="4.00" arrival="139.00" arrivalLane="52i_0" arrivalPos="10.00" arrivalSpeed="11.39" duration="93.00" routeLength="1015.10" waitSteps="0" timeLoss="16.43" rerouteNo="0" devices="tripinfo_right_12" vType="typeWE" speedFactor="1.00" vaporized=""/>
    <tripinfo id="right_14" depart="51.00" departLane="51o_0" departPos="5.10" departSpeed="0.00" departDelay="2.00" arrival="143.00" arrivalLane="52i_0" arrivalPos="10.00" arrivalSpeed="11.40" duration="92.00" routeLength="1015.10" waitSteps="0" timeLoss="15.83" rerouteNo="0" devices="tripinfo_right_14" vType="typeWE" speedFactor="1.00" vaporized=""/>
    <tripinfo id="left_16" depart="53.00" departLane="52o_0" departPos="5.10" departSpeed="0.00" departDelay="0.00" arrival="145.00" arrivalLane="51i_0" arrivalPos="10.00" arrivalSpeed="11.23" duration="92.00" routeLength="1015.10" waitSteps="0" timeLoss="15.65" rerouteNo="0" devices="tripinfo_left_16" vType="typeWE" speedFactor="1.00" vaporized=""/>
    <tripinfo id="right_15" depart="57.00" departLane="51o_0" departPos="5.10" departSpeed="0.00" departDelay="6.00" arrival="148.00" arrivalLane="52i_0" arrivalPos="10.00" arrivalSpeed="11.50" duration="91.00" routeLength="1015.10" waitSteps="0" timeLoss="14.87" rerouteNo="0" devices="tripinfo_right_15" vType="typeWE" speedFactor="1.00" vaporized=""/>
    <tripinfo id="left_18" depart="58.00" departLane="52o_0" departPos="5.10" departSpeed="0.00" departDelay="2.00" arrival="150.00" arrivalLane="51i_0" arrivalPos="10.00" arrivalSpeed="11.46" duration="92.00" routeLength="1015.10" waitSteps="0" timeLoss="15.70" rerouteNo="0" devices="tripinfo_left_18" vType="typeWE" speedFactor="1.00" vaporized=""/>
    <tripinfo id="left_21" depart="63.00" departLane="52o_0" departPos="5.10" departSpeed="0.00" departDelay="2.00" arrival="154.00" arrivalLane="51i_0" arrivalPos="10.00" arrivalSpeed="11.29" duration="91.00" routeLength="1015.10" waitSteps="0" timeLoss="14.40" rerouteNo="0" devices="tripinfo_left_21" vType="typeWE" speedFactor="1.00" vaporized=""/>
    <tripinfo id="right_23" depart="69.00" departLane="51o_0" departPos="5.10" departSpeed="0.00" departDelay="0.00" arrival="160.00" arrivalLane="52i_0" arrivalPos="10.00" arrivalSpeed="11.38" duration="91.00" routeLength="1015.10" waitSteps="0" timeLoss="14.80" rerouteNo="0" devices="tripinfo_right_23" vType="typeWE" speedFactor="1.00" vaporized=""/>
    <tripinfo id="down_8" depart="26.00" departLane="54o_0" departPos="5.10" departSpeed="0.00" departDelay="0.00" arrival="176.00" arrivalLane="53i_0" arrivalPos="10.00" arrivalSpeed="11.66" duration="150.00" routeLength="1015.10" waitSteps="48" timeLoss="73.70" rerouteNo="0" devices="tripinfo_down_8" vType="typeNS" speedFactor="1.00" vaporized=""/>
    <tripinfo id="up_5" depart="19.00" departLane="53o_0" departPos="5.10" departSpeed="0.00" departDelay="0.00" arrival="177.00" arrivalLane="54i_0" arrivalPos="10.00" arrivalSpeed="11.60" duration="158.00" routeLength="1015.10" waitSteps="55" timeLoss="82.08" rerouteNo="0" devices="tripinfo_up_5" vType="typeNS" speedFactor="1.00" vaporized=""/>
    <tripinfo id="down_13" depart="44.00" departLane="54o_0" departPos="5.10" departSpeed="0.00" departDelay="0.00" arrival="178.00" arrivalLane="53i_0" arrivalPos="10.00" arrivalSpeed="11.80" duration="134.00" routeLength="1015.10" waitSteps="32" timeLoss="58.15" rerouteNo="0" devices="tripinfo_down_13" vType="typeNS" speedFactor="1.00" vaporized=""/>
    <tripinfo id="up_7" depart="24.00" departLane="53o_0" departPos="5.10" departSpeed="0.00" departDelay="0.00" arrival="179.00" arrivalLane="54i_0" arrivalPos="10.00" arrivalSpeed="10.85" duration="155.00" routeLength="1015.10" waitSteps="51" timeLoss="79.04" rerouteNo="0" devices="tripinfo_up_7" vType="typeNS" speedFactor="1.00" vaporized=""/>
    <tripinfo id="down_17" depart="55.00" departLane="54o_0" departPos="5.10" departSpeed="0.00" departDelay="0.00" arrival="181.00" arrivalLane="53i_0" arrivalPos="10.00" arrivalSpeed="11.82" duration="126.00" routeLength="1015.10" waitSteps="21" timeLoss="50.02" rerouteNo="0" devices="tripinfo_down_17" vType="typeNS" speedFactor="1.00" vaporized=""/>
    <tripinfo id="up_10" depart="36.00" departLane="53o_0" departPos="5.10" departSpeed="0.00" departDelay="0.00" arrival="181.00" arrivalLane="54i_0" arrivalPos="10.00" arrivalSpeed="11.85" duration="145.00" routeLength="1015.10" waitSteps="40" timeLoss="69.15" rerouteNo="0" devices="tripinfo_up_10" vType="typeNS" speedFactor="1.00" vaporized=""/>
    <tripinfo id="down_19" depart="60.00" departLane="54o_0" departPos="5.10" departSpeed="0.00" departDelay="3.00" arrival="183.00" arrivalLane="53i_0" arrivalPos="10.00" arrivalSpeed="11.72" duration="123.00" routeLength="1015.10" waitSteps="18" timeLoss="46.81" rerouteNo="0" devices="tripinfo_down_19" vType="typeNS" speedFactor="1.00" vaporized=""/>
    <tripinfo id="up_20" depart="60.00" departLane="53o_0" departPos="5.10" departSpeed="0.00" departDelay="0.00" arrival="184.00" arrivalLane="54i_0" arrivalPos="10.00" arrivalSpeed="11.54" duration="124.00" routeLength="1015.10" waitSteps="18" timeLoss="47.55" rerouteNo="0" devices="tripinfo_up_20" vType="typeNS" speedFactor="1.00" vaporized=""/>
    <tripinfo id="down_24" depart="71.00" departLane="54o_0" departPos="5.10" departSpeed="0.00" departDelay="0.00" arrival="185.00" arrivalLane="53i_0" arrivalPos="10.00" arrivalSpeed="11.59" duration="114.00" routeLength="1015.10" waitSteps="9" timeLoss="37.67" rerouteNo="0" devices="tripinfo_down_24" vType="typeNS" speedFactor="1.00" vaporized=""/>
    <tripinfo id="up_22" depart="65.00" departLane="53o_0" departPos="5.10" departSpeed="0.00" departDelay="4.00" arrival="186.00" arrivalLane="54i_0" arrivalPos="10.00" arrivalSpeed="11.39" duration="121.00" routeLength="1015.10" waitSteps="15" timeLoss="44.42" rerouteNo="0" devices="tripinfo_up_22" vType="typeNS" speedFactor="1.00" vaporized=""/>
    <tripinfo id="down_26" depart="76.00" departLane="54o_0" departPos="5.10" departSpeed="0.00" departDelay="0.00" arrival="187.00" arrivalLane="53i_0" arrivalPos="10.00" arrivalSpeed="11.35" duration="111.00" routeLength="1015.10" waitSteps="6" timeLoss="34.55" rerouteNo="0" devices="tripinfo_down_26" vType="typeNS" speedFactor="1.00" vaporized=""/>
    <tripinfo id="up_28" depart="77.00" departLane="53o_0" departPos="5.10" departSpeed="0.00" departDelay="0.00" arrival="188.00" arrivalLane="54i_0" arrivalPos="10.00" arrivalSpeed="11.70" duration="111.00" routeLength="1015.10" waitSteps="5" timeLoss="34.72" rerouteNo="0" devices="tripinfo_up_28" vType="typeNS" speedFactor="1.00" vaporized=""/>
    <tripinfo id="down_34" depart="90.00" departLane="54o_0" departPos="5.10" departSpeed="0.00" departDelay="0.00" arrival="189.00" arrivalLane="53i_0" arrivalPos="10.00" arrivalSpeed="11.49" duration="99.00" routeLength="1015.10" waitSteps="0" timeLoss="22.38" rerouteNo="0" devices="tripinfo_down_34" vType="typeNS" speedFactor="1.00" vaporized=""/>
    <tripinfo id="up_33" depart="86.00" departLane="53o_0" departPos="5.10" departSpeed="0.00" departDelay="0.00" arrival="190.00" arrivalLane="54i_0" arrivalPos="10.00" arrivalSpeed="11.47" duration="104.00" routeLength="1015.10" waitSteps="0" timeLoss="27.49" rerouteNo="0" devices="tripinfo_up_33" vType="typeNS" speedFactor="1.00" vaporized=""/>
    <tripinfo id="up_35" depart="91.00" departLane="53o_0" departPos="5.10" departSpeed="0.00" departDelay="0.00" arrival="191.00" arrivalLane="54i_0" arrivalPos="10.00" arrivalSpeed="10.99" duration="100.00" routeLength="1015.10" waitSteps="0" timeLoss="23.90" rerouteNo="0" devices="tripinfo_up_35" vType="typeNS" speedFactor="1.00" vaporized=""/>
    <tripinfo id="up_36" depart="96.00" departLane="53o_0" departPos="5.10" departSpeed="0.00" departDelay="4.00" arrival="193.00" arrivalLane="54i_0" arrivalPos="10.00" arrivalSpeed="11.38" duration="97.00" routeLength="1015.10" waitSteps="0" timeLoss="21.02" rerouteNo="0" devices="tripinfo_up_36" vType="typeNS" speedFactor="1.00" vaporized=""/>
    <tripinfo id="up_38" depart="101.00" departLane="53o_0" departPos="5.10" departSpeed="0.00" departDelay="4.00" arrival="195.00" arrivalLane="54i_0" arrivalPos="10.00" arrivalSpeed="11.72" duration="94.00" routeLength="1015.10" waitSteps="0" timeLoss="17.73" rerouteNo="0" devices="tripinfo_up_38" vType="typeNS" speedFactor="1.00" vaporized=""/>
    <tripinfo id="up_40" depart="112.00" departLane="53o_0" departPos="5.10" departSpeed="0.00" departDelay="0.00" arrival="203.00" arrivalLane="54i_0" arrivalPos="10.00" arrivalSpeed="11.48" duration="91.00" routeLength="1015.10" waitSteps="0" timeLoss="14.40" rerouteNo="0" devices="tripinfo_up_40" vType="typeNS" speedFactor="1.00" vaporized=""/>
    <tripinfo id="up_43" depart="123.00" departLane="53o_0" departPos="5.10" departSpeed="0.00" departDelay="0.00" arrival="214.00" arrivalLane="54i_0" arrivalPos="10.00" arrivalSpeed="11.64" duration="91.00" routeLength="1015.10" waitSteps="0" timeLoss="15.08" rerouteNo="0" devices="tripinfo_up_43" vType="typeNS" speedFactor="1.00" vaporized=""/>
    <tripinfo id="down_46" depart="127.00" departLane="54o_0" departPos="5.10" departSpeed="0.00" departDelay="0.00" arrival="218.00" arrivalLane="53i_0" arrivalPos="10.00" arrivalSpeed="11.67" duration="91.00" routeLength="1015.10" waitSteps="0" timeLoss="14.72" rerouteNo="0" devices="tripinfo_down_46" vType="typeNS" speedFactor="1.00" vaporized=""/>
    <tripinfo id="down_47" depart="132.00" departLane="54o_0" departPos="5.10" departSpeed="0.00" departDelay="4.00" arrival="223.00" arrivalLane="53i_0" arrivalPos="10.00" arrivalSpeed="11.56" duration="91.00" routeLength="1015.10" waitSteps="0" timeLoss="15.01" rerouteNo="0" devices="tripinfo_down_47" vType="typeNS" speedFactor="1.00" vaporized=""/>
    <tripinfo id="right_25" depart="76.00" departLane="51o_0" departPos="5.10" departSpeed="0.00" departDelay="0.00" arrival="236.00" arrivalLane="52i_0" arrivalPos="10.00" arrivalSpeed="11.54" duration="160.00" routeLength="1015.10" waitSteps="59" timeLoss="83.32" rerouteNo="0" devices="tripinfo_right_25" vType="typeWE" speedFactor="1.00" vaporized=""/>
    <tripinfo id="left_27" depart="77.00" departLane="52o_0" departPos="5.10" departSpeed="0.00" departDelay="0.00" arrival="236.00" arrivalLane="51i_0" arrivalPos="10.00" arrivalSpeed="11.32" duration="159.00" routeLength="1015.10" waitSteps="60" timeLoss="82.81" rerouteNo="0" devices="tripinfo_left_27" vType="typeWE" speedFactor="1.00" vaporized=""/>
    <tripinfo id="right_29" depart="81.00" departLane="51o_0" departPos="5.10" departSpeed="0.00" departDelay="1.00" arrival="239.00" arrivalLane="52i_0" arrivalPos="10.00" arrivalSpeed="11.45" duration="158.00" routeLength="1015.10" waitSteps="55" timeLoss="81.43" rerouteNo="0" devices="tripinfo_right_29" vType="typeWE" speedFactor="1.00" vaporized=""/>
    <tripinfo id="left_30" depart="82.00" departLane="52o_0" departPos="5.10" departSpeed="0.00" departDelay="1.00" arrival="239.00" arrivalLane="51i_0" arrivalPos="10.00" arrivalSpeed="11.67" duration="157.00" routeLength="1015.10" waitSteps="53" timeLoss="80.56" rerouteNo="0" devices="tripinfo_left_30" vType="typeWE" speedFactor="1.00" vaporized=""/>
    <tripinfo id="right_31" depart="87.00" departLane="51o_0" departPos="5.10" departSpeed="0.00" departDelay="5.00" arrival="241.00" arrivalLane="52i_0" arrivalPos="10.00" arrivalSpeed="11.79" duration="154.00" routeLength="1015.10" waitSteps="51" timeLoss="77.67" rerouteNo="0" devices="tripinfo_right_31" vType="typeWE" speedFactor="1.00" vaporized=""/>
    <tripinfo id="left_37" depart="94.00" departLane="52o_0" departPos="5.10" departSpeed="0.00" departDelay="0.00" arrival="241.00" arrivalLane="51i_0" arrivalPos="10.00" arrivalSpeed="11.54" duration="147.00" routeLength="1015.10" waitSteps="43" timeLoss="70.38" rerouteNo="0" devices="tripinfo_left_37" vType="typeWE" speedFactor="1.00" vaporized=""/>
    <tripinfo id="right_32" depart="92.00" departLane="51o_0" departPos="5.10" departSpeed="0.00" departDelay="6.00" arrival="243.00" arrivalLane="52i_0" arrivalPos="10.00" arrivalSpeed="11.45" duration="151.00" routeLength="1015.10" waitSteps="46" timeLoss="74.51" rerouteNo="0" devices="tripinfo_right_32" vType="typeWE" speedFactor="1.00" vaporized=""/>
    <tripinfo id="left_39" depart="109.00" departLane="52o_0" departPos="5.10" departSpeed="0.00" departDelay="0.00" arrival="243.00" arrivalLane="51i_0" arrivalPos="10.00" arrivalSpeed="11.51" duration="134.00" routeLength="1015.10" waitSteps="29" timeLoss="57.68" rerouteNo="0" devices="tripinfo_left_39" vType="typeWE" speedFactor="1.00" vaporized=""/>
    <tripinfo id="right_42" depart="123.00" departLane="51o_0" departPos="5.10" departSpeed="0.00" departDelay="2.00" arrival="244.00" arrivalLane="52i_0" arrivalPos="10.00" arrivalSpeed="11.03" duration="121.00" routeLength="1015.10" waitSteps="16" timeLoss="45.01" rerouteNo="0" devices="tripinfo_right_42" vType="typeWE" speedFactor="1.00" vaporized=""/>
    <tripinfo id="left_41" depart="117.00" departLane="52o_0" departPos="5.10" departSpeed="0.00" departDelay="0.00" arrival="245.00" arrivalLane="51i_0" arrivalPos="10.00" arrivalSpeed="11.66" duration="128.00" routeLength="1015.10" waitSteps="21" timeLoss="51.48" rerouteNo="0" devices="tripinfo_left_41" vType="typeWE" speedFactor="1.00" vaporized=""/>
    <tripinfo id="right_44" depart="128.00" departLane="51o_0" departPos="5.10" departSpeed="0.00" departDelay="4.00" arrival="247.00" arrivalLane="52i_0" arrivalPos="10.00" arrivalSpeed="11.63" duration="119.00" routeLength="1015.10" waitSteps="13" timeLoss="42.52" rerouteNo="0" devices="tripinfo_right_44" vType="typeWE" speedFactor="1.00" vaporized=""/>
    <tripinfo id="left_48" depart="129.00" departLane="52o_0" departPos="5.10" departSpeed="0.00" departDelay="0.00" arrival="247.00" arrivalLane="51i_0" arrivalPos="10.00" arrivalSpeed="11.54" duration="118.00" routeLength="1015.10" waitSteps="11" timeLoss="41.51" rerouteNo="0" devices="tripinfo_left_48" vType="typeWE" speedFactor="1.00" vaporized=""/>
    <tripinfo id="right_45" depart="133.00" departLane="51o_0" departPos="5.10" departSpeed="0.00" departDelay="7.00" arrival="249.00" arrivalLane="52i_0" arrivalPos="10.00" arrivalSpeed="11.79" duration="116.00" routeLength="1015.10" waitSteps="10" timeLoss="39.62" rerouteNo="0" devices="tripinfo_right_45" vType="typeWE" speedFactor="1.00" vaporized=""/>
    <tripinfo id="left_51" depart="134.00" departLane="52o_0" departPos="5.10" departSpeed="0.00" departDelay="3.00" arrival="249.00" arrivalLane="51i_0" arrivalPos="10.00" arrivalSpeed="11.47" duration="115.00" routeLength="1015.10" waitSteps="10" timeLoss="38.31" rerouteNo="0" devices="tripinfo_left_51" vType="typeWE" speedFactor="1.00" vaporized=""/>
    <tripinfo id="left_54" depart="144.00" departLane="52o_0" departPos="5.10" departSpeed="0.00" departDelay="0.00" arrival="250.00" arrivalLane="51i_0" arrivalPos="10.00" arrivalSpeed="11.68" duration="106.00" routeLength="1015.10" waitSteps="0" timeLoss="30.06" rerouteNo="0" devices="tripinfo_left_54" vType="typeWE" speedFactor="1.00" vaporized=""/>
    <tripinfo id="right_53" depart="141.00" departLane="51o_0" departPos="5.10" departSpeed="0.00" departDelay="0.00" arrival="251.00" arrivalLane="52i_0" arrivalPos="10.00" arrivalSpeed="11.52" duration="110.00" routeLength="1015.10" waitSteps="3" timeLoss="33.43" rerouteNo="0" devices="tripinfo_right_53" vType="typeWE" speedFactor="1.00" vaporized=""/>
    <tripinfo id="right_55" depart="146.00" departLane="51o_0" departPos="5.10" departSpeed="0.00" departDelay="1.00" arrival="252.00" arrivalLane="52i_0" arrivalPos="10.00" arrivalSpeed="11.53" duration="106.00" routeLength="1015.10" waitSteps="1" timeLoss="30.23" rerouteNo="0" devices="tripinfo_right_55" vType="typeWE" speedFactor="1.00" vaporized=""/>
    <tripinfo id="left_66" depart="162.00" departLane="52o_0" departPos="5.10" departSpeed="0.00" departDelay="0.00" arrival="252.00" arrivalLane="51i_0" arrivalPos="10.00" arrivalSpeed="11.45" duration="90.00" routeLength="1015.10" waitSteps="0" timeLoss="13.97" rerouteNo="0" devices="tripinfo_left_66" vType="typeWE" speedFactor="1.00" vaporized=""/>
    <tripinfo id="right_59" depart="151.00" departLane="51o_0" departPos="5.10" departSpeed="0.00" departDelay="3.00" arrival="254.00" arrivalLane="52i_0" arrivalPos="10.00" arrivalSpeed="11.64" duration="103.00" routeLength="1015.10" waitSteps="0" timeLoss="26.98" rerouteNo="0" devices="tripinfo_right_59" vType="typeWE" speedFactor="1.00" vaporized=""/>
    <tripinfo id="right_61" depart="156.00" departLane="51o_0" departPos="5.10" departSpeed="0.00" departDelay="3.00" arrival="256.00" arrivalLane="52i_0" arrivalPos="10.00" arrivalSpeed="11.70" duration="100.00" routeLength="1015.10" waitSteps="0" timeLoss="23.87" rerouteNo="0" devices="tripinfo_right_61" vType="typeWE" speedFactor="1.00" vaporized=""/>
    <tripinfo id="right_63" depart="161.00" departLane="51o_0" departPos="5.10" departSpeed="0.00" departDelay="7.00" arrival="258.00" arrivalLane="52i_0" arrivalPos="10.00" arrivalSpeed="11.53" duration="97.00" routeLength="1015.10" waitSteps="0" timeLoss="20.50" rerouteNo="0" devices="tripinfo_right_63" vType="typeWE" speedFactor="1.00" vaporized=""/>
    <tripinfo id="left_67" depart="167.00" departLane="52o_0" departPos="5.10" departSpeed="0.00" departDelay="2.00" arrival="259.00" arrivalLane="51i_0" arrivalPos="10.00" arrivalSpeed="11.38" duration="92.00" routeLength="1015.10" waitSteps="0" timeLoss="15.26" rerouteNo="0" devices="tripinfo_left_67" vType="typeWE" speedFactor="1.00" vaporized=""/>
    <tripinfo id="right_69" depart="168.00" departLane="51o_0" departPos="5.10" departSpeed="0.00" departDelay="0.00" arrival="260.00" arrivalLane="52i_0" arrivalPos="10.00" arrivalSpeed="11.25" duration="92.00" routeLength="1015.10" waitSteps="0" timeLoss="15.69" rerouteNo="0" devices="tripinfo_right_69" vType="typeWE" speedFactor="1.00" vaporized=""/>
    <tripinfo id="left_70" depart="172.00" departLane="52o_0" departPos="5.10" departSpeed="0.00" departDelay="3.00" arrival="263.00" arrivalLane="51i_0" arrivalPos="10.00" arrivalSpeed="11.57" duration="91.00" routeLength="1015.10" waitSteps="0" timeLoss="14.74" rerouteNo="0" devices="tripinfo_left_70" vType="typeWE" speedFactor="1.00" vaporized=""/>
    <tripinfo id="left_74" depart="186.00" departLane="52o_0" departPos="5.10" departSpeed="0.00" departDelay="0.00" arrival="277.00" arrivalLane="51i_0" arrivalPos="10.00" arrivalSpeed="11.35" duration="91.00" routeLength="1015.10" waitSteps="0" timeLoss="15.07" rerouteNo="0" devices="tripinfo_left_74" vType="typeWE" speedFactor="1.00" vaporized=""/>
    <tripinfo id="right_76" depart="188.00" departLane="51o_0" departPos="5.10" departSpeed="0.00" departDelay="0.00" arrival="280.00" arrivalLane="52i_0" arrivalPos="10.00" arrivalSpeed="11.57" duration="92.00" routeLength="1015.10" waitSteps="0" timeLoss="15.32" rerouteNo="0" devices="tripinfo_right_76" vType="typeWE" speedFactor="1.00" vaporized=""/>
    <tripinfo id="left_77" depart="193.00" departLane="52o_0" departPos="5.10" departSpeed="0.00" departDelay="0.00" arrival="284.00" arrivalLane="51i_0" arrivalPos="10.00" arrivalSpeed="11.47" duration="91.00" routeLength="1015.10" waitSteps="0" timeLoss="14.80" rerouteNo="0" devices="tripinfo_left_77" vType="typeWE" speedFactor="1.00" vaporized=""/>
    <tripinfo id="down_49" depart="137.00" departLane="54o_0" departPos="5.10" departSpeed="0.00" departDelay="8.00" arrival="296.00" arrivalLane="53i_0" arrivalPos="10.00" arrivalSpeed="11.42" duration="159.00" routeLength="1015.10" waitSteps="60" timeLoss="82.69" rerouteNo="0" devices="tripinfo_down_49" vType="typeNS" speedFactor="1.00" vaporized=""/>
    <tripinfo id="up_57" depart="146.00" departLane="53o_0" departPos="5.10" departSpeed="0.00" departDelay="0.00" arrival="297.00" arrivalLane="54i_0" arrivalPos="10.00" arrivalSpeed="11.66" duration="151.00" routeLength="1015.10" waitSteps="48" timeLoss="74.61" rerouteNo="0" devices="tripinfo_up_57" vType="typeNS" speedFactor="1.00" vaporized=""/>
    <tripinfo id="down_50" depart="142.00" departLane="54o_0" departPos="5.10" departSpeed="0.00" departDelay="12.00" arrival="298.00" arrivalLane="53i_0" arrivalPos="10.00" arrivalSpeed="11.32" duration="156.00" routeLength="1015.10" waitSteps="54" timeLoss="80.06" rerouteNo="0" devices="tripinfo_down_50" vType="typeNS" speedFactor="1.00" vaporized=""/>
    <tripinfo id="up_62" depart="153.00" departLane="53o_0" departPos="5.10" departSpeed="0.00" departDelay="0.00" arrival="299.00" arrivalLane="54i_0" arrivalPos="10.00" arrivalSpeed="11.50" duration="146.00" routeLength="1015.10" waitSteps="43" timeLoss="69.42" rerouteNo="0" devices="tripinfo_up_62" vType="typeNS" speedFactor="1.00" vaporized=""/>
    <tripinfo id="down_52" depart="147.00" departLane="54o_0" departPos="5.10" departSpeed="0.00" departDelay="13.00" arrival="300.00" arrivalLane="53i_0" arrivalPos="10.00" arrivalSpeed="11.37" duration="153.00" routeLength="1015.10" waitSteps="50" timeLoss="76.73" rerouteNo="0" devices="tripinfo_down_52" vType="typeNS" speedFactor="1.00" vaporized=""/>
    <tripinfo id="up_65" depart="159.00" departLane="53o_0" departPos="5.10" departSpeed="0.00" departDelay="0.00" arrival="301.00" arrivalLane="54i_0" arrivalPos="10.00" arrivalSpeed="11.64" duration="142.00" routeLength="1015.10" waitSteps="39" timeLoss="65.73" rerouteNo="0" devices="tripinfo_up_65" vType="typeNS" speedFactor="1.00" vaporized=""/>
    <tripinfo id="down_56" depart="152.00" departLane="54o_0" departPos="5.10" departSpeed="0.00" departDelay="6.00" arrival="302.00" arrivalLane="53i_0" arrivalPos="10.00" arrivalSpeed="11.18" duration="150.00" routeLength="1015.10" waitSteps="47" timeLoss="73.56" rerouteNo="0" devices="tripinfo_down_56" vType="typeNS" speedFactor="1.00" vaporized=""/>
    <tripinfo id="up_68" depart="167.00" departLane="53o_0" departPos="5.10" departSpeed="0.00" departDelay="0.00" arrival="303.00" arrivalLane="54i_0" arrivalPos="10.00" arrivalSpeed="11.59" duration="136.00" routeLength="1015.10" waitSteps="31" timeLoss="59.44" rerouteNo="0" devices="tripinfo_up_68" vType="typeNS" speedFactor="1.00" vaporized=""/>
    <tripinfo id="down_58" depart="157.00" departLane="54o_0" departPos="5.10" departSpeed="0.00" departDelay="10.00" arrival="304.00" arrivalLane="53i_0" arrivalPos="10.00" arrivalSpeed="11.47" duration="147.00" routeLength="1015.10" waitSteps="43" timeLoss="70.67" rerouteNo="0" devices="tripinfo_down_58" vType="typeNS" speedFactor="1.00" vaporized=""/>
    <tripinfo id="up_71" depart="172.00" departLane="53o_0" departPos="5.10" departSpeed="0.00" departDelay="3.00" arrival="305.00" arrivalLane="54i_0" arrivalPos="10.00" arrivalSpeed="11.79" duration="133.00" routeLength="1015.10" waitSteps="27" timeLoss="56.49" rerouteNo="0" devices="tripinfo_up_71" vType="typeNS" speedFactor="1.00" vaporized=""/>
    <tripinfo id="down_60" depart="162.00" departLane="54o_0" departPos="5.10" departSpeed="0.00" departDelay="14.00" arrival="306.00" arrivalLane="53i_0" arrivalPos="10.00" arrivalSpeed="11.57" duration="144.00" routeLength="1015.10" waitSteps="41" timeLoss="68.02" rerouteNo="0" devices="tripinfo_down_60" vType="typeNS" speedFactor="1.00" vaporized=""/>
    <tripinfo id="up_72" depart="178.00" departLane="53o_0" departPos="5.10" departSpeed="0.00" departDelay="4.00" arrival="307.00" arrivalLane="54i_0" arrivalPos="10.00" arrivalSpeed="11.55" duration="129.00" routeLength="1015.10" waitSteps="23" timeLoss="52.92" rerouteNo="0" devices="tripinfo_up_72" vType="typeNS" speedFactor="1.00" vaporized=""/>
    <tripinfo id="down_64" depart="167.00" departLane="54o_0" departPos="5.10" departSpeed="0.00" departDelay="12.00" arrival="308.00" arrivalLane="53i_0" arrivalPos="10.00" arrivalSpeed="11.78" duration="141.00" routeLength="1015.10" waitSteps="36" timeLoss="64.94" rerouteNo="0" devices="tripinfo_down_64" vType="typeNS" speedFactor="1.00" vaporized=""/>
    <tripinfo id="down_75" depart="191.00" departLane="54o_0" departPos="5.10" departSpeed="0.00" departDelay="5.00" arrival="310.00" arrivalLane="53i_0" arrivalPos="10.00" arrivalSpeed="11.78" duration="119.00" routeLength="1015.10" waitSteps="14" timeLoss="42.68" rerouteNo="0" devices="tripinfo_down_75" vType="typeNS" speedFactor="1.00" vaporized=""/>
    <tripinfo id="up_73" depart="189.00" departLane="53o_0" departPos="5.10" departSpeed="0.00" departDelay="4.00" arrival="310.00" arrivalLane="54i_0" arrivalPos="10.00" arrivalSpeed="11.53" duration="121.00" routeLength="1015.10" waitSteps="16" timeLoss="44.58" rerouteNo="0" devices="tripinfo_up_73" vType="typeNS" speedFactor="1.00" vaporized=""/>
    <tripinfo id="down_82" depart="211.00" departLane="54o_0" departPos="5.10" departSpeed="0.00" departDelay="0.00" arrival="312.00" arrivalLane="53i_0" arrivalPos="10.00" arrivalSpeed="11.54" duration="101.00" routeLength="1015.10" waitSteps="0" timeLoss="24.56" rerouteNo="0" devices="tripinfo_down_82" vType="typeNS" speedFactor="1.00" vaporized=""/>
    <tripinfo id="up_80" depart="195.00" departLane="53o_0" departPos="5.10" departSpeed="0.00" departDelay="0.00" arrival="312.00" arrivalLane="54i_0" arrivalPos="10.00" arrivalSpeed="11.56" duration="117.00" routeLength="1015.10" waitSteps="11" timeLoss="40.37" rerouteNo="0" devices="tripinfo_up_80" vType="typeNS" speedFactor="1.00" vaporized=""/>
    <tripinfo id="up_81" depart="203.00" departLane="53o_0" departPos="5.10" departSpeed="0.00" departDelay="0.00" arrival="313.00" arrivalLane="54i_0" arrivalPos="10.00" arrivalSpeed="11.40" duration="110.00" routeLength="1015.10" waitSteps="4" timeLoss="34.20" rerouteNo="0" devices="tripinfo_up_81" vType="typeNS" speedFactor="1.00" vaporized=""/>