<?xml version="1.0" encoding="UTF-8"?>

<!-- generated on Mon Apr 30 16:36:05 2018 by SUMO Version 0.32.0
<?xml version="1.0" encoding="UTF-8"?>

<configuration xmlns:xsi="http://www.w3.org/2001/XMLSchema-instance" xsi:noNamespaceSchemaLocation="http://sumo.dlr.de/xsd/sumoConfiguration.xsd">

    <input>
        <net-file value="data/cross.net.xml"/>
        <route-files value="data/cross.rou.xml"/>
        <additional-files value="data/cross.det.xml"/>
    </input>

    <output>
        <summary-output value="data/cross.out"/>
        <tripinfo-output value="output/tripinfo39.xml"/>
    </output>

    <time>
        <begin value="0"/>
    </time>

    <report>
        <verbose value="true"/>
        <duration-log.statistics value="true"/>
        <no-step-log value="true"/>
    </report>

    <traci_server>
        <remote-port value="48308"/>
    </traci_server>

</configuration>
-->

<tripinfos xmlns:xsi="http://www.w3.org/2001/XMLSchema-instance" xsi:noNamespaceSchemaLocation="http://sumo.dlr.de/xsd/tripinfo_file.xsd">
    <tripinfo id="up_3" depart="13.00" departLane="53o_0" departPos="5.10" departSpeed="0.00" departDelay="0.00" arrival="104.00" arrivalLane="54i_0" arrivalPos="10.00" arrivalSpeed="11.61" duration="91.00" routeLength="1015.10" waitSteps="0" timeLoss="14.18" rerouteNo="0" devices="tripinfo_up_3" vType="typeNS" speedFactor="1.00" vaporized=""/>
    <tripinfo id="right_0" depart="2.00" departLane="51o_0" departPos="5.10" departSpeed="0.00" departDelay="0.00" arrival="116.00" arrivalLane="52i_0" arrivalPos="10.00" arrivalSpeed="11.81" duration="114.00" routeLength="1015.10" waitSteps="13" timeLoss="38.21" rerouteNo="0" devices="tripinfo_right_0" vType="typeWE" speedFactor="1.00" vaporized=""/>
    <tripinfo id="right_1" depart="7.00" departLane="51o_0" departPos="5.10" departSpeed="0.00" departDelay="2.00" arrival="118.00" arrivalLane="52i_0" arrivalPos="10.00" arrivalSpeed="11.39" duration="111.00" routeLength="1015.10" waitSteps="10" timeLoss="34.97" rerouteNo="0" devices="tripinfo_right_1" vType="typeWE" speedFactor="1.00" vaporized=""/>
    <tripinfo id="left_8" depart="27.00" departLane="52o_0" departPos="5.10" departSpeed="0.00" departDelay="0.00" arrival="119.00" arrivalLane="51i_0" arrivalPos="10.00" arrivalSpeed="11.81" duration="92.00" routeLength="1015.10" waitSteps="0" timeLoss="15.44" rerouteNo="0" devices="tripinfo_left_8" vType="typeWE" speedFactor="1.00" vaporized=""/>
    <tripinfo id="right_2" depart="12.00" departLane="51o_0" departPos="5.10" departSpeed="0.00" departDelay="0.00" arrival="121.00" arrivalLane="52i_0" arrivalPos="10.00" arrivalSpeed="11.47" duration="109.00" routeLength="1015.10" waitSteps="3" timeLoss="32.42" rerouteNo="0" devices="tripinfo_right_2" vType="typeWE" speedFactor="1.00" vaporized=""/>
    <tripinfo id="right_5" depart="17.00" departLane="51o_0" departPos="5.10" departSpeed="0.00" departDelay="2.00" arrival="123.00" arrivalLane="52i_0" arrivalPos="10.00" arrivalSpeed="11.40" duration="106.00" routeLength="1015.10" waitSteps="1" timeLoss="29.67" rerouteNo="0" devices="tripinfo_right_5" vType="typeWE" speedFactor="1.00" vaporized=""/>
    <tripinfo id="left_10" depart="32.00" departLane="52o_0" departPos="5.10" departSpeed="0.00" departDelay="3.00" arrival="123.00" arrivalLane="51i_0" arrivalPos="10.00" arrivalSpeed="11.43" duration="91.00" routeLength="1015.10" waitSteps="0" timeLoss="15.07" rerouteNo="0" devices="tripinfo_left_10" vType="typeWE" speedFactor="1.00" vaporized=""/>
    <tripinfo id="right_7" depart="22.00" departLane="51o_0" departPos="5.10" departSpeed="0.00" departDelay="4.00" arrival="125.00" arrivalLane="52i_0" arrivalPos="10.00" arrivalSpeed="11.79" duration="103.00" routeLength="1015.10" waitSteps="0" timeLoss="26.72" rerouteNo="0" devices="tripinfo_right_7" vType="typeWE" speedFactor="1.00" vaporized=""/>
    <tripinfo id="right_16" depart="47.00" departLane="51o_0" departPos="5.10" departSpeed="0.00" departDelay="0.00" arrival="138.00" arrivalLane="52i_0" arrivalPos="10.00" arrivalSpeed="11.30" duration="91.00" routeLength="1015.10" waitSteps="0" timeLoss="14.43" rerouteNo="0" devices="tripinfo_right_16" vType="typeWE" speedFactor="1.00" vaporized=""/>
    <tripinfo id="left_19" depart="54.00" departLane="52o_0" departPos="5.10" departSpeed="0.00" departDelay="0.00" arrival="147.00" arrivalLane="51i_0" arrivalPos="10.00" arrivalSpeed="11.46" duration="93.00" routeLength="1015.10" waitSteps="0" timeLoss="16.48" rerouteNo="0" devices="tripinfo_left_19" vType="typeWE" speedFactor="1.00" vaporized=""/>
    <tripinfo id="right_20" depart="68.00" departLane="51o_0" departPos="5.10" departSpeed="0.00" departDelay="0.00" arrival="160.00" arrivalLane="52i_0" arrivalPos="10.00" arrivalSpeed="11.18" duration="92.00" routeLength="1015.10" waitSteps="0" timeLoss="15.97" rerouteNo="0" devices="tripinfo_right_20" vType="typeWE" speedFactor="1.00" vaporized=""/>
    <tripinfo id="left_21" depart="76.00" departLane="52o_0" departPos="5.10" departSpeed="0.00" departDelay="0.00" arrival="166.00" arrivalLane="51i_0" arrivalPos="10.00" arrivalSpeed="11.30" duration="90.00" routeLength="1015.10" waitSteps="0" timeLoss="13.77" rerouteNo="0" devices="tripinfo_left_21" vType="typeWE" speedFactor="1.00" vaporized=""/>
    <tripinfo id="up_4" depart="18.00" departLane="53o_0" departPos="5.10" departSpeed="0.00" departDelay="4.00" arrival="176.00" arrivalLane="54i_0" arrivalPos="10.00" arrivalSpeed="11.44" duration="158.00" routeLength="1015.10" waitSteps="57" timeLoss="82.16" rerouteNo="0" devices="tripinfo_up_4" vType="typeNS" speedFactor="1.00" vaporized=""/>
    <tripinfo id="down_13" depart="32.00" departLane="54o_0" departPos="5.10" departSpeed="0.00" departDelay="0.00" arrival="176.00" arrivalLane="53i_0" arrivalPos="10.00" arrivalSpeed="11.68" duration="144.00" routeLength="1015.10" waitSteps="42" timeLoss="68.23" rerouteNo="0" devices="tripinfo_down_13" vType="typeNS" speedFactor="1.00" vaporized=""/>
    <tripinfo id="up_6" depart="23.00" departLane="53o_0" departPos="5.10" departSpeed="0.00" departDelay="7.00" arrival="178.00" arrivalLane="54i_0" arrivalPos="10.00" arrivalSpeed="11.01" duration="155.00" routeLength="1015.10" waitSteps="53" timeLoss="78.94" rerouteNo="0" devices="tripinfo_up_6" vType="typeNS" speedFactor="1.00" vaporized=""/>
    <tripinfo id="down_15" depart="40.00" departLane="54o_0" departPos="5.10" departSpeed="0.00" departDelay="0.00" arrival="179.00" arrivalLane="53i_0" arrivalPos="10.00" arrivalSpeed="11.52" duration="139.00" routeLength="1015.10" waitSteps="35" timeLoss="63.16" rerouteNo="0" devices="tripinfo_down_15" vType="typeNS" speedFactor="1.00" vaporized=""/>
    <tripinfo id="up_9" depart="28.00" departLane="53o_0" departPos="5.10" departSpeed="0.00" departDelay="0.00" arrival="181.00" arrivalLane="54i_0" arrivalPos="10.00" arrivalSpeed="11.81" duration="153.00" routeLength="1015.10" waitSteps="49" timeLoss="76.47" rerouteNo="0" devices="tripinfo_up_9" vType="typeNS" speedFactor="1.00" vaporized=""/>
    <tripinfo id="down_17" depart="47.00" departLane="54o_0" departPos="5.10" departSpeed="0.00" departDelay="0.00" arrival="181.00" arrivalLane="53i_0" arrivalPos="10.00" arrivalSpeed="11.32" duration="134.00" routeLength="1015.10" waitSteps="29" timeLoss="57.99" rerouteNo="0" devices="tripinfo_down_17" vType="typeNS" speedFactor="1.00" vaporized=""/>
    <tripinfo id="up_11" depart="33.00" departLane="53o_0" departPos="5.10" departSpeed="0.00" departDelay="3.00" arrival="183.00" arrivalLane="54i_0" arrivalPos="10.00" arrivalSpeed="11.75" duration="150.00" routeLength="1015.10" waitSteps="46" timeLoss="73.43" rerouteNo="0" devices="tripinfo_up_11" vType="typeNS" speedFactor="1.00" vaporized=""/>
    <tripinfo id="down_23" depart="81.00" departLane="54o_0" departPos="5.10" departSpeed="0.00" departDelay="0.00" arrival="183.00" arrivalLane="53i_0" arrivalPos="10.00" arrivalSpeed="11.58" duration="102.00" routeLength="1015.10" waitSteps="0" timeLoss="25.89" rerouteNo="0" devices="tripinfo_down_23" vType="typeNS" speedFactor="1.00" vaporized=""/>
    <tripinfo id="up_12" depart="38.00" departLane="53o_0" departPos="5.10" departSpeed="0.00" departDelay="7.00" arrival="185.00" arrivalLane="54i_0" arrivalPos="10.00" arrivalSpeed="11.36" duration="147.00" routeLength="1015.10" waitSteps="42" timeLoss="70.61" rerouteNo="0" devices="tripinfo_up_12" vType="typeNS" speedFactor="1.00" vaporized=""/>
    <tripinfo id="down_24" depart="86.00" departLane="54o_0" departPos="5.10" departSpeed="0.00" departDelay="4.00" arrival="185.00" arrivalLane="53i_0" arrivalPos="10.00" arrivalSpeed="11.60" duration="99.00" routeLength="1015.10" waitSteps="0" timeLoss="22.56" rerouteNo="0" devices="tripinfo_down_24" vType="typeNS" speedFactor="1.00" vaporized=""/>
    <tripinfo id="up_14" depart="43.00" departLane="53o_0" departPos="5.10" departSpeed="0.00" departDelay="10.00" arrival="187.00" arrivalLane="54i_0" arrivalPos="10.00" arrivalSpeed="11.44" duration="144.00" routeLength="1015.10" waitSteps="37" timeLoss="67.32" rerouteNo="0" devices="tripinfo_up_14" vType="typeNS" speedFactor="1.00" vaporized=""/>
    <tripinfo id="up_18" depart="51.00" departLane="53o_0" departPos="5.10" departSpeed="0.00" departDelay="0.00" arrival="188.00" arrivalLane="54i_0" arrivalPos="10.00" arrivalSpeed="11.53" duration="137.00" routeLength="1015.10" waitSteps="31" timeLoss="61.12" rerouteNo="0" devices="tripinfo_up_18" vType="typeNS" speedFactor="1.00" vaporized=""/>
    <tripinfo id="up_22" depart="79.00" departLane="53o_0" departPos="5.10" departSpeed="0.00" departDelay="0.00" arrival="190.00" arrivalLane="54i_0" arrivalPos="10.00" arrivalSpeed="11.74" duration="111.00" routeLength="1015.10" waitSteps="5" timeLoss="35.17" rerouteNo="0" devices="tripinfo_up_22" vType="typeNS" speedFactor="1.00" vaporized=""/>
    <tripinfo id="up_25" depart="84.00" departLane="53o_0" departPos="5.10" departSpeed="0.00" departDelay="0.00" arrival="192.00" arrivalLane="54i_0" arrivalPos="10.00" arrivalSpeed="11.02" duration="108.00" routeLength="1015.10" waitSteps="2" timeLoss="31.98" rerouteNo="0" devices="tripinfo_up_25" vType="typeNS" speedFactor="1.00" vaporized=""/>
    <tripinfo id="up_26" depart="89.00" departLane="53o_0" departPos="5.10" departSpeed="0.00" departDelay="4.00" arrival="194.00" arrivalLane="54i_0" arrivalPos="10.00" arrivalSpeed="11.03" duration="105.00" routeLength="1015.10" waitSteps="0" timeLoss="28.92" rerouteNo="0" devices="tripinfo_up_26" vType="typeNS" speedFactor="1.00" vaporized=""/>
    <tripinfo id="up_29" depart="95.00" departLane="53o_0" departPos="5.10" departSpeed="0.00" departDelay="0.00" arrival="196.00" arrivalLane="54i_0" arrivalPos="10.00" arrivalSpeed="11.62" duration="101.00" routeLength="1015.10" waitSteps="0" timeLoss="25.13" rerouteNo="0" devices="tripinfo_up_29" vType="typeNS" speedFactor="1.00" vaporized=""/>
    <tripinfo id="up_37" depart="113.00" departLane="53o_0" departPos="5.10" departSpeed="0.00" departDelay="0.00" arrival="204.00" arrivalLane="54i_0" arrivalPos="10.00" arrivalSpeed="10.74" duration="91.00" routeLength="1015.10" waitSteps="0" timeLoss="14.89" rerouteNo="0" devices="tripinfo_up_37" vType="typeNS" speedFactor="1.00" vaporized=""/>
    <tripinfo id="up_38" depart="120.00" departLane="53o_0" departPos="5.10" departSpeed="0.00" departDelay="0.00" arrival="212.00" arrivalLane="54i_0" arrivalPos="10.00" arrivalSpeed="11.37" duration="92.00" routeLength="1015.10" waitSteps="0" timeLoss="15.38" rerouteNo="0" devices="tripinfo_up_38" vType="typeNS" speedFactor="1.00" vaporized=""/>
    <tripinfo id="down_42" depart="131.00" departLane="54o_0" departPos="5.10" departSpeed="0.00" departDelay="0.00" arrival="223.00" arrivalLane="53i_0" arrivalPos="10.00" arrivalSpeed="11.49" duration="92.00" routeLength="1015.10" waitSteps="0" timeLoss="15.20" rerouteNo="0" devices="tripinfo_down_42" vType="typeNS" speedFactor="1.00" vaporized=""/>
    <tripinfo id="down_43" depart="136.00" departLane="54o_0" departPos="5.10" departSpeed="0.00" departDelay="1.00" arrival="227.00" arrivalLane="53i_0" arrivalPos="10.00" arrivalSpeed="11.34" duration="91.00" routeLength="1015.10" waitSteps="0" timeLoss="14.35" rerouteNo="0" devices="tripinfo_down_43" vType="typeNS" speedFactor="1.00" vaporized=""/>
    <tripinfo id="right_28" depart="93.00" departLane="51o_0" departPos="5.10" departSpeed="0.00" departDelay="0.00" arrival="236.00" arrivalLane="52i_0" arrivalPos="10.00" arrivalSpeed="11.71" duration="143.00" routeLength="1015.10" waitSteps="43" timeLoss="66.93" rerouteNo="0" devices="tripinfo_right_28" vType="typeWE" speedFactor="1.00" vaporized=""/>
    <tripinfo id="left_27" depart="87.00" departLane="52o_0" departPos="5.10" departSpeed="0.00" departDelay="0.00" arrival="236.00" arrivalLane="51i_0" arrivalPos="10.00" arrivalSpeed="11.36" duration="149.00" routeLength="1015.10" waitSteps="46" timeLoss="73.13" rerouteNo="0" devices="tripinfo_left_27" vType="typeWE" speedFactor="1.00" vaporized=""/>
    <tripinfo id="left_32" depart="102.00" departLane="52o_0" departPos="5.10" departSpeed="0.00" departDelay="0.00" arrival="238.00" arrivalLane="51i_0" arrivalPos="10.00" arrivalSpeed="11.07" duration="136.00" routeLength="1015.10" waitSteps="34" timeLoss="60.07" rerouteNo="0" devices="tripinfo_left_32" vType="typeWE" speedFactor="1.00" vaporized=""/>
    <tripinfo id="right_30" depart="98.00" departLane="51o_0" departPos="5.10" departSpeed="0.00" departDelay="0.00" arrival="238.00" arrivalLane="52i_0" arrivalPos="10.00" arrivalSpeed="11.55" duration="140.00" routeLength="1015.10" waitSteps="37" timeLoss="64.14" rerouteNo="0" devices="tripinfo_right_30" vType="typeWE" speedFactor="1.00" vaporized=""/>
    <tripinfo id="left_34" depart="107.00" departLane="52o_0" departPos="5.10" departSpeed="0.00" departDelay="2.00" arrival="240.00" arrivalLane="51i_0" arrivalPos="10.00" arrivalSpeed="11.57" duration="133.00" routeLength="1015.10" waitSteps="30" timeLoss="57.07" rerouteNo="0" devices="tripinfo_left_34" vType="typeWE" speedFactor="1.00" vaporized=""/>
    <tripinfo id="right_31" depart="103.00" departLane="51o_0" departPos="5.10" departSpeed="0.00" departDelay="4.00" arrival="241.00" arrivalLane="52i_0" arrivalPos="10.00" arrivalSpeed="11.23" duration="138.00" routeLength="1015.10" waitSteps="34" timeLoss="61.78" rerouteNo="0" devices="tripinfo_right_31" vType="typeWE" speedFactor="1.00" vaporized=""/>
    <tripinfo id="left_35" depart="112.00" departLane="52o_0" departPos="5.10" departSpeed="0.00" departDelay="5.00" arrival="242.00" arrivalLane="51i_0" arrivalPos="10.00" arrivalSpeed="11.49" duration="130.00" routeLength="1015.10" waitSteps="26" timeLoss="54.14" rerouteNo="0" devices="tripinfo_left_35" vType="typeWE" speedFactor="1.00" vaporized=""/>
    <tripinfo id="right_33" depart="108.00" departLane="51o_0" departPos="5.10" departSpeed="0.00" departDelay="5.00" arrival="243.00" arrivalLane="52i_0" arrivalPos="10.00" arrivalSpeed="11.59" duration="135.00" routeLength="1015.10" waitSteps="31" timeLoss="58.58" rerouteNo="0" devices="tripinfo_right_33" vType="typeWE" speedFactor="1.00" vaporized=""/>
    <tripinfo id="left_40" depart="126.00" departLane="52o_0" departPos="5.10" departSpeed="0.00" departDelay="0.00" arrival="244.00" arrivalLane="51i_0" arrivalPos="10.00" arrivalSpeed="11.41" duration="118.00" routeLength="1015.10" waitSteps="13" timeLoss="41.97" rerouteNo="0" devices="tripinfo_left_40" vType="typeWE" speedFactor="1.00" vaporized=""/>
    <tripinfo id="right_36" depart="113.00" departLane="51o_0" departPos="5.10" departSpeed="0.00" departDelay="0.00" arrival="245.00" arrivalLane="52i_0" arrivalPos="10.00" arrivalSpeed="11.73" duration="132.00" routeLength="1015.10" waitSteps="27" timeLoss="55.48" rerouteNo="0" devices="tripinfo_right_36" vType="typeWE" speedFactor="1.00" vaporized=""/>
    <tripinfo id="right_39" depart="125.00" departLane="51o_0" departPos="5.10" departSpeed="0.00" departDelay="0.00" arrival="246.00" arrivalLane="52i_0" arrivalPos="10.00" arrivalSpeed="11.66" duration="121.00" routeLength="1015.10" waitSteps="17" timeLoss="45.20" rerouteNo="0" devices="tripinfo_right_39" vType="typeWE" speedFactor="1.00" vaporized=""/>
    <tripinfo id="left_44" depart="140.00" departLane="52o_0" departPos="5.10" departSpeed="0.00" departDelay="0.00" arrival="246.00" arrivalLane="51i_0" arrivalPos="10.00" arrivalSpeed="11.39" duration="106.00" routeLength="1015.10" waitSteps="1" timeLoss="29.83" rerouteNo="0" devices="tripinfo_left_44" vType="typeWE" speedFactor="1.00" vaporized=""/>
    <tripinfo id="right_41" depart="130.00" departLane="51o_0" departPos="5.10" departSpeed="0.00" departDelay="3.00" arrival="248.00" arrivalLane="52i_0" arrivalPos="10.00" arrivalSpeed="11.38" duration="118.00" routeLength="1015.10" waitSteps="12" timeLoss="42.01" rerouteNo="0" devices="tripinfo_right_41" vType="typeWE" speedFactor="1.00" vaporized=""/>
    <tripinfo id="left_47" depart="146.00" departLane="52o_0" departPos="5.10" departSpeed="0.00" departDelay="0.00" arrival="249.00" arrivalLane="51i_0" arrivalPos="10.00" arrivalSpeed="11.70" duration="103.00" routeLength="1015.10" waitSteps="0" timeLoss="26.32" rerouteNo="0" devices="tripinfo_left_47" vType="typeWE" speedFactor="1.00" vaporized=""/>
    <tripinfo id="left_49" depart="153.00" departLane="52o_0" departPos="5.10" departSpeed="0.00" departDelay="0.00" arrival="250.00" arrivalLane="51i_0" arrivalPos="10.00" arrivalSpeed="10.74" duration="97.00" routeLength="1015.10" waitSteps="0" timeLoss="20.82" rerouteNo="0" devices="tripinfo_left_49" vType="typeWE" speedFactor="1.00" vaporized=""/>
    <tripinfo id="right_51" depart="157.00" departLane="51o_0" departPos="5.10" departSpeed="0.00" departDelay="0.00" arrival="250.00" arrivalLane="52i_0" arrivalPos="10.00" arrivalSpeed="11.69" duration="93.00" routeLength="1015.10" waitSteps="0" timeLoss="16.65" rerouteNo="0" devices="tripinfo_right_51" vType="typeWE" speedFactor="1.00" vaporized=""/>
    <tripinfo id="left_50" depart="158.00" departLane="52o_0" departPos="5.10" departSpeed="0.00" departDelay="4.00" arrival="252.00" arrivalLane="51i_0" arrivalPos="10.00" arrivalSpeed="11.50" duration="94.00" routeLength="1015.10" waitSteps="0" timeLoss="17.92" rerouteNo="0" devices="tripinfo_left_50" vType="typeWE" speedFactor="1.00" vaporized=""/>
    <tripinfo id="right_52" depart="162.00" departLane="51o_0" departPos="5.10" departSpeed="0.00" departDelay="1.00" arrival="253.00" arrivalLane="52i_0" arrivalPos="10.00" arrivalSpeed="11.59" duration="91.00" routeLength="1015.10" waitSteps="0" timeLoss="14.88" rerouteNo="0" devices="tripinfo_right_52" vType="typeWE" speedFactor="1.00" vaporized=""/>
    <tripinfo id="right_55" depart="167.00" departLane="51o_0" departPos="5.10" departSpeed="0.00" departDelay="2.00" arrival="258.00" arrivalLane="52i_0" arrivalPos="10.00" arrivalSpeed="11.31" duration="91.00" routeLength="1015.10" waitSteps="0" timeLoss="14.84" rerouteNo="0" devices="tripinfo_right_55" vType="typeWE" speedFactor="1.00" vaporized=""/>
    <tripinfo id="left_56" depart="169.00" departLane="52o_0" departPos="5.10" departSpeed="0.00" departDelay="0.00" arrival="260.00" arrivalLane="51i_0" arrivalPos="10.00" arrivalSpeed="11.20" duration="91.00" routeLength="1015.10" waitSteps="0" timeLoss="14.41" rerouteNo="0" devices="tripinfo_left_56" vType="typeWE" speedFactor="1.00" vaporized=""/>
    <tripinfo id="right_57" depart="172.00" departLane="51o_0" departPos="5.10" departSpeed="0.00" departDelay="2.00" arrival="264.00" arrivalLane="52i_0" arrivalPos="10.00" arrivalSpeed="11.38" duration="92.00" routeLength="1015.10" waitSteps="0" timeLoss="15.21" rerouteNo="0" devices="tripinfo_right_57" vType="typeWE" speedFactor="1.00" vaporized=""/>
    <tripinfo id="right_58" depart="177.00" departLane="51o_0" departPos="5.10" departSpeed="0.00" departDelay="5.00" arrival="268.00" arrivalLane="52i_0" arrivalPos="10.00" arrivalSpeed="11.46" duration="91.00" routeLength="1015.10" waitSteps="0" timeLoss="14.72" rerouteNo="0" devices="tripinfo_right_58" vType="typeWE" speedFactor="1.00" vaporized=""/>
    <tripinfo id="right_59" depart="182.00" departLane="51o_0" departPos="5.10" departSpeed="0.00" departDelay="8.00" arrival="273.00" arrivalLane="52i_0" arrivalPos="10.00" arrivalSpeed="11.55" duration="91.00" routeLength="1015.10" waitSteps="0" timeLoss="14.78" rerouteNo="0" devices="tripinfo_right_59" vType="typeWE" speedFactor="1.00" vaporized=""/>
    <tripinfo id="left_63" depart="184.00" departLane="52o_0" departPos="5.10" departSpeed="0.00" departDelay="0.00" arrival="275.00" arrivalLane="51i_0" arrivalPos="10.00" arrivalSpeed="11.56" duration="91.00" routeLength="1015.10" waitSteps="0" timeLoss="14.74" rerouteNo="0" devices="tripinfo_left_63" vType="typeWE" speedFactor="1.00" vaporized=""/>
    <tripinfo id="left_65" depart="191.00" departLane="52o_0" departPos="5.10" departSpeed="0.00" departDelay="0.00" arrival="282.00" arrivalLane="51i_0" arrivalPos="10.00" arrivalSpeed="11.46" duration="91.00" routeLength="1015.10" waitSteps="0" timeLoss="14.83" rerouteNo="0" devices="tripinfo_left_65" vType="typeWE" speedFactor="1.00" vaporized=""/>
    <tripinfo id="right_67" depart="196.00" departLane="51o_0" departPos="5.10" departSpeed="0.00" departDelay="0.00" arrival="287.00" arrivalLane="52i_0" arrivalPos="10.00" arrivalSpeed="11.41" duration="91.00" routeLength="1015.10" waitSteps="0" timeLoss="14.63" rerouteNo="0" devices="tripinfo_right_67" vType="typeWE" speedFactor="1.00" vaporized=""/>
    <tripinfo id="up_45" depart="140.00" departLane="53o_0" departPos="5.10" departSpeed="0.00" departDelay="0.00" arrival="296.00" arrivalLane="54i_0" arrivalPos="10.00" arrivalSpeed="11.58" duration="156.00" routeLength="1015.10" waitSteps="55" timeLoss="80.06" rerouteNo="0" devices="tripinfo_up_45" vType="typeNS" speedFactor="1.00" vaporized=""/>
    <tripinfo id="down_46" depart="141.00" departLane="54o_0" departPos="5.10" departSpeed="0.00" departDelay="0.00" arrival="297.00" arrivalLane="53i_0" arrivalPos="10.00" arrivalSpeed="11.62" duration="156.00" routeLength="1015.10" waitSteps="55" timeLoss="79.61" rerouteNo="0" devices="tripinfo_down_46" vType="typeNS" speedFactor="1.00" vaporized=""/>
    <tripinfo id="up_48" depart="151.00" departLane="53o_0" departPos="5.10" departSpeed="0.00" departDelay="0.00" arrival="298.00" arrivalLane="54i_0" arrivalPos="10.00" arrivalSpeed="10.89" duration="147.00" routeLength="1015.10" waitSteps="44" timeLoss="71.03" rerouteNo="0" devices="tripinfo_up_48" vType="typeNS" speedFactor="1.00" vaporized=""/>
    <tripinfo id="down_54" depart="164.00" departLane="54o_0" departPos="5.10" departSpeed="0.00" departDelay="0.00" arrival="299.00" arrivalLane="53i_0" arrivalPos="10.00" arrivalSpeed="11.82" duration="135.00" routeLength="1015.10" waitSteps="30" timeLoss="58.49" rerouteNo="0" devices="tripinfo_down_54" vType="typeNS" speedFactor="1.00" vaporized=""/>
    <tripinfo id="down_60" depart="176.00" departLane="54o_0" departPos="5.10" departSpeed="0.00" departDelay="1.00" arrival="300.00" arrivalLane="53i_0" arrivalPos="10.00" arrivalSpeed="11.00" duration="124.00" routeLength="1015.10" waitSteps="22" timeLoss="47.98" rerouteNo="0" devices="tripinfo_down_60" vType="typeNS" speedFactor="1.00" vaporized=""/>
    <tripinfo id="up_53" depart="163.00" departLane="53o_0" departPos="5.10" departSpeed="0.00" departDelay="0.00" arrival="301.00" arrivalLane="54i_0" arrivalPos="10.00" arrivalSpeed="11.60" duration="138.00" routeLength="1015.10" waitSteps="33" timeLoss="61.32" rerouteNo="0" devices="tripinfo_up_53" vType="typeNS" speedFactor="1.00" vaporized=""/>
    <tripinfo id="up_62" depart="185.00" departLane="53o_0" departPos="5.10" departSpeed="0.00" departDelay="4.00" arrival="302.00" arrivalLane="54i_0" arrivalPos="10.00" arrivalSpeed="11.53" duration="117.00" routeLength="1015.10" waitSteps="14" timeLoss="41.12" rerouteNo="0" devices="tripinfo_up_62" vType="typeNS" speedFactor="1.00" vaporized=""/>
    <tripinfo id="down_61" depart="188.00" departLane="54o_0" departPos="5.10" departSpeed="0.00" departDelay="10.00" arrival="302.00" arrivalLane="53i_0" arrivalPos="10.00" arrivalSpeed="11.21" duration="114.00" routeLength="1015.10" waitSteps="12" timeLoss="38.00" rerouteNo="0" devices="tripinfo_down_61" vType="typeNS" speedFactor="1.00" vaporized=""/>
    <tripinfo id="up_64" depart="190.00" departLane="53o_0" departPos="5.10" departSpeed="0.00" departDelay="6.00" arrival="304.00" arrivalLane="54i_0" arrivalPos="10.00" arrivalSpeed="11.28" duration="114.00" routeLength="1015.10" waitSteps="8" timeLoss="38.19" rerouteNo="0" devices="tripinfo_up_64" vType="typeNS" speedFactor="1.00" vaporized=""/>
    <tripinfo id="down_70" depart="205.00" departLane="54o_0" departPos="5.10" departSpeed="0.00" departDelay="0.00" arrival="304.00" arrivalLane="53i_0" arrivalPos="10.00" arrivalSpeed="11.34" duration="99.00" routeLength="1015.10" waitSteps="0" timeLoss="22.83" rerouteNo="0" devices="tripinfo_down_70" vType="typeNS" speedFactor="1.00" vaporized=""/>
    <tripinfo id="up_66" depart="195.00" departLane="53o_0" departPos="5.10" departSpeed="0.00" departDelay="1.00" arrival="306.00" arrivalLane="54i_0" arrivalPos="10.00" arrivalSpeed="11.32" duration="111.00" routeLength="1015.10" waitSteps="7" timeLoss="34.99" rerouteNo="0" devices="tripinfo_up_66" vType="typeNS" speedFactor="1.00" vaporized=""/>
    <tripinfo id="down_73" depart="227.00" departLane="54o_0" departPos="5.10" departSpeed="0.00" departDelay="0.00" arrival="319.00" arrivalLane="53i_0" arrivalPos="10.00" arrivalSpeed="11.75" duration="92.00" routeLength="1015.10" waitSteps="0" timeLoss="15.40" rerouteNo="0" devices="tripinfo_down_73" vType="typeNS" speedFactor="1.00" vaporized=""/>
    <tripinfo id="down_74" depart="233.00" departLane="54o_0" departPos="5.10" departSpeed="0.00" departDelay="0.00" arrival="324.00" arrivalLane="53i_0" arrivalPos="10.00" arrivalSpeed="11.30" duration="91.00" routeLength="1015.10" waitSteps="0" timeLoss="14.76" rerouteNo="0" devices="tripinfo_down_74" vType="typeNS" speedFactor="1.00" vaporized=""/>
    <tripinfo id="up_76" depart="235.00" departLane="53o_0" departPos="5.10" departSpeed="0.00" departDelay="0.00" arrival="327.00" arrivalLane="54i_0" arrivalPos="10.00" arrivalSpeed="11.49" duration="92.00" routeLength="1015.10" waitSteps="0" timeLoss="15.83" rerouteNo="0" devices="tripinfo_up_76" vType="typeNS" speedFactor="1.00" vaporized=""/>
    <tripinfo id="down_82" depart="248.00" departLane="54o_0" departPos="5.10" departSpeed="0.00" departDelay="0.00" arrival="339.00" arrivalLane="53i_0" arrivalPos="10.00" arrivalSpeed="11.41" duration="91.00" routeLength="1015.10" waitSteps="0" timeLoss="14.55" rerouteNo="0" devices="tripinfo_down_82" vType="typeNS" speedFactor="1.00" vaporized=""/>
    <tripinfo id="right_71" depart="221.00" departLane="51o_0" departPos="5.10" departSpeed="0.00" departDelay="0.00" arrival="356.00" arrivalLane="52i_0" arrivalPos="10.00" arrivalSpeed="11.19" duration="135.00" routeLength="1015.10" waitSteps="34" timeLoss="59.16" rerouteNo="0" devices="tripinfo_right_71" vType="typeWE" speedFactor="1.00" vaporized=""/>
    <tripinfo id="left_68" depart="199.00" departLane="52o_0" departPos="5.10" departSpeed="0.00" departDelay="0.00" arrival="356.00" arrivalLane="51i_0" arrivalPos="10.00" arrivalSpeed="11.35" duration="157.00" routeLength="1015.10" waitSteps="54" timeLoss="80.88" rerouteNo="0" devices="tripinfo_left_68" vType="typeWE" speedFactor="1.00" vaporized=""/>
    <tripinfo id="right_72" depart="227.00" departLane="51o_0" departPos="5.10" departSpeed="0.00" departDelay="0.00" arrival="358.00" arrivalLane="52i_0" arrivalPos="10.00" arrivalSpeed="11.65" duration="131.00" routeLength="1015.10" waitSteps="28" timeLoss="55.08" rerouteNo="0" devices="tripinfo_right_72" vType="typeWE" speedFactor="1.00" vaporized=""/>
    <tripinfo id="left_69" depart="204.00" departLane="52o_0" departPos="5.10" departSpeed="0.00" departDelay="3.00" arrival="358.00" arrivalLane="51i_0" arrivalPos="10.00" arrivalSpeed="11.54" duration="154.00" routeLength="1015.10" waitSteps="51" timeLoss="78.18" rerouteNo="0" devices="tripinfo_left_69" vType="typeWE" speedFactor="1.00" vaporized=""/>
    <tripinfo id="right_87" depart="260.00" departLane="51o_0" departPos="5.10" departSpeed="0.00" departDelay="0.00" arrival="361.00" arrivalLane="52i_0" arrivalPos="10.00" arrivalSpeed="11.45" duration="101.00" routeLength="1015.10" waitSteps="0" timeLoss="24.98" rerouteNo="0" devices="tripinfo_right_87" vType="typeWE" speedFactor="1.00" vaporized=""/>
    <tripinfo id="left_75" depart="236.00" departLane="52o_0" departPos="5.10" departSpeed="0.00" departDelay="1.00" arrival="361.00" arrivalLane="51i_0" arrivalPos="10.00" arrivalSpeed="11.74" duration="125.00" routeLength="1015.10" waitSteps="21" timeLoss="48.91" rerouteNo="0" devices="tripinfo_left_75" vType="typeWE" speedFactor="1.00" vaporized=""/>
    <tripinfo id="right_89" depart="265.00" departLane="51o_0" departPos="5.10" departSpeed="0.00" departDelay="0.00" arrival="363.00" arrivalLane="52i_0" arrivalPos="10.00" arrivalSpeed="11.54" duration="98.00" routeLength="1015.10" waitSteps="0" timeLoss="21.82" rerouteNo="0" devices="tripinfo_right_89" vType="typeWE" speedFactor="1.00" vaporized=""/>
    <tripinfo id="left_77" depart="246.00" departLane="52o_0" departPos="5.10" departSpeed="0.00" departDelay="8.00" arrival="363.00" arrivalLane="51i_0" arrivalPos="10.00" arrivalSpeed="11.58" duration="117.00" routeLength="1015.10" waitSteps="11" timeLoss="40.83" rerouteNo="0" devices="tripinfo_left_77" vType="typeWE" speedFactor="1.00" vaporized=""/>