<?xml version="1.0" encoding="UTF-8"?>

<!-- generated on Mon Apr 30 16:37:47 2018 by SUMO Version 0.32.0
<?xml version="1.0" encoding="UTF-8"?>

<configuration xmlns:xsi="http://www.w3.org/2001/XMLSchema-instance" xsi:noNamespaceSchemaLocation="http://sumo.dlr.de/xsd/sumoConfiguration.xsd">

    <input>
        <net-file value="data/cross.net.xml"/>
        <route-files value="data/cross.rou.xml"/>
        <additional-files value="data/cross.det.xml"/>
    </input>

    <output>
        <summary-output value="data/cross.out"/>
        <tripinfo-output value="output/tripinfo84.xml"/>
    </output>

    <time>
        <begin value="0"/>
    </time>

    <report>
        <verbose value="true"/>
        <duration-log.statistics value="true"/>
        <no-step-log value="true"/>
    </report>

    <traci_server>
        <remote-port value="59515"/>
    </traci_server>

</configuration>
-->

<tripinfos xmlns:xsi="http://www.w3.org/2001/XMLSchema-instance" xsi:noNamespaceSchemaLocation="http://sumo.dlr.de/xsd/tripinfo_file.xsd">
    <tripinfo id="up_3" depart="10.00" departLane="53o_0" departPos="5.10" departSpeed="0.00" departDelay="0.00" arrival="101.00" arrivalLane="54i_0" arrivalPos="10.00" arrivalSpeed="11.36" duration="91.00" routeLength="1015.10" waitSteps="0" timeLoss="14.72" rerouteNo="0" devices="tripinfo_up_3" vType="typeNS" speedFactor="1.00" vaporized=""/>
    <tripinfo id="down_4" depart="14.00" departLane="54o_0" departPos="5.10" departSpeed="0.00" departDelay="0.00" arrival="105.00" arrivalLane="53i_0" arrivalPos="10.00" arrivalSpeed="11.48" duration="91.00" routeLength="1015.10" waitSteps="0" timeLoss="14.87" rerouteNo="0" devices="tripinfo_down_4" vType="typeNS" speedFactor="1.00" vaporized=""/>
    <tripinfo id="right_6" depart="17.00" departLane="51o_0" departPos="5.10" departSpeed="0.00" departDelay="0.00" arrival="108.00" arrivalLane="52i_0" arrivalPos="10.00" arrivalSpeed="11.39" duration="91.00" routeLength="1015.10" waitSteps="0" timeLoss="15.12" rerouteNo="0" devices="tripinfo_right_6" vType="typeWE" speedFactor="1.00" vaporized=""/>
    <tripinfo id="right_7" depart="22.00" departLane="51o_0" departPos="5.10" departSpeed="0.00" departDelay="4.00" arrival="114.00" arrivalLane="52i_0" arrivalPos="10.00" arrivalSpeed="11.45" duration="92.00" routeLength="1015.10" waitSteps="0" timeLoss="15.81" rerouteNo="0" devices="tripinfo_right_7" vType="typeWE" speedFactor="1.00" vaporized=""/>
    <tripinfo id="left_0" depart="2.00" departLane="52o_0" departPos="5.10" departSpeed="0.00" departDelay="0.00" arrival="116.00" arrivalLane="51i_0" arrivalPos="10.00" arrivalSpeed="11.69" duration="114.00" routeLength="1015.10" waitSteps="11" timeLoss="38.23" rerouteNo="0" devices="tripinfo_left_0" vType="typeWE" speedFactor="1.00" vaporized=""/>
    <tripinfo id="left_1" depart="7.00" departLane="52o_0" departPos="5.10" departSpeed="0.00" departDelay="3.00" arrival="118.00" arrivalLane="51i_0" arrivalPos="10.00" arrivalSpeed="10.89" duration="111.00" routeLength="1015.10" waitSteps="8" timeLoss="35.02" rerouteNo="0" devices="tripinfo_left_1" vType="typeWE" speedFactor="1.00" vaporized=""/>
    <tripinfo id="right_9" depart="27.00" departLane="51o_0" departPos="5.10" departSpeed="0.00" departDelay="5.00" arrival="119.00" arrivalLane="52i_0" arrivalPos="10.00" arrivalSpeed="11.61" duration="92.00" routeLength="1015.10" waitSteps="0" timeLoss="15.70" rerouteNo="0" devices="tripinfo_right_9" vType="typeWE" speedFactor="1.00" vaporized=""/>
    <tripinfo id="left_2" depart="12.00" departLane="52o_0" departPos="5.10" departSpeed="0.00" departDelay="3.00" arrival="121.00" arrivalLane="51i_0" arrivalPos="10.00" arrivalSpeed="11.37" duration="109.00" routeLength="1015.10" waitSteps="6" timeLoss="32.76" rerouteNo="0" devices="tripinfo_left_2" vType="typeWE" speedFactor="1.00" vaporized=""/>
    <tripinfo id="left_8" depart="21.00" departLane="52o_0" departPos="5.10" departSpeed="0.00" departDelay="0.00" arrival="123.00" arrivalLane="51i_0" arrivalPos="10.00" arrivalSpeed="11.62" duration="102.00" routeLength="1015.10" waitSteps="0" timeLoss="25.60" rerouteNo="0" devices="tripinfo_left_8" vType="typeWE" speedFactor="1.00" vaporized=""/>
    <tripinfo id="left_13" depart="27.00" departLane="52o_0" departPos="5.10" departSpeed="0.00" departDelay="0.00" arrival="124.00" arrivalLane="51i_0" arrivalPos="10.00" arrivalSpeed="11.05" duration="97.00" routeLength="1015.10" waitSteps="0" timeLoss="21.01" rerouteNo="0" devices="tripinfo_left_13" vType="typeWE" speedFactor="1.00" vaporized=""/>
    <tripinfo id="right_15" depart="33.00" departLane="51o_0" departPos="5.10" departSpeed="0.00" departDelay="2.00" arrival="124.00" arrivalLane="52i_0" arrivalPos="10.00" arrivalSpeed="11.75" duration="91.00" routeLength="1015.10" waitSteps="0" timeLoss="14.26" rerouteNo="0" devices="tripinfo_right_15" vType="typeWE" speedFactor="1.00" vaporized=""/>
    <tripinfo id="left_16" depart="32.00" departLane="52o_0" departPos="5.10" departSpeed="0.00" departDelay="1.00" arrival="126.00" arrivalLane="51i_0" arrivalPos="10.00" arrivalSpeed="11.46" duration="94.00" routeLength="1015.10" waitSteps="0" timeLoss="18.03" rerouteNo="0" devices="tripinfo_left_16" vType="typeWE" speedFactor="1.00" vaporized=""/>
    <tripinfo id="right_17" depart="38.00" departLane="51o_0" departPos="5.10" departSpeed="0.00" departDelay="6.00" arrival="129.00" arrivalLane="52i_0" arrivalPos="10.00" arrivalSpeed="11.39" duration="91.00" routeLength="1015.10" waitSteps="0" timeLoss="14.71" rerouteNo="0" devices="tripinfo_right_17" vType="typeWE" speedFactor="1.00" vaporized=""/>
    <tripinfo id="right_18" depart="43.00" departLane="51o_0" departPos="5.10" departSpeed="0.00" departDelay="9.00" arrival="134.00" arrivalLane="52i_0" arrivalPos="10.00" arrivalSpeed="11.48" duration="91.00" routeLength="1015.10" waitSteps="0" timeLoss="14.77" rerouteNo="0" devices="tripinfo_right_18" vType="typeWE" speedFactor="1.00" vaporized=""/>
    <tripinfo id="right_21" depart="48.00" departLane="51o_0" departPos="5.10" departSpeed="0.00" departDelay="6.00" arrival="139.00" arrivalLane="52i_0" arrivalPos="10.00" arrivalSpeed="11.47" duration="91.00" routeLength="1015.10" waitSteps="0" timeLoss="14.86" rerouteNo="0" devices="tripinfo_right_21" vType="typeWE" speedFactor="1.00" vaporized=""/>
    <tripinfo id="left_27" depart="49.00" departLane="52o_0" departPos="5.10" departSpeed="0.00" departDelay="0.00" arrival="140.00" arrivalLane="51i_0" arrivalPos="10.00" arrivalSpeed="11.29" duration="91.00" routeLength="1015.10" waitSteps="0" timeLoss="14.85" rerouteNo="0" devices="tripinfo_left_27" vType="typeWE" speedFactor="1.00" vaporized=""/>
    <tripinfo id="right_23" depart="53.00" departLane="51o_0" departPos="5.10" departSpeed="0.00" departDelay="7.00" arrival="143.00" arrivalLane="52i_0" arrivalPos="10.00" arrivalSpeed="10.95" duration="90.00" routeLength="1015.10" waitSteps="0" timeLoss="13.79" rerouteNo="0" devices="tripinfo_right_23" vType="typeWE" speedFactor="1.00" vaporized=""/>
    <tripinfo id="right_24" depart="58.00" departLane="51o_0" departPos="5.10" departSpeed="0.00" departDelay="10.00" arrival="148.00" arrivalLane="52i_0" arrivalPos="10.00" arrivalSpeed="11.32" duration="90.00" routeLength="1015.10" waitSteps="0" timeLoss="13.94" rerouteNo="0" devices="tripinfo_right_24" vType="typeWE" speedFactor="1.00" vaporized=""/>
    <tripinfo id="left_31" depart="57.00" departLane="52o_0" departPos="5.10" departSpeed="0.00" departDelay="0.00" arrival="149.00" arrivalLane="51i_0" arrivalPos="10.00" arrivalSpeed="11.72" duration="92.00" routeLength="1015.10" waitSteps="0" timeLoss="15.72" rerouteNo="0" devices="tripinfo_left_31" vType="typeWE" speedFactor="1.00" vaporized=""/>
    <tripinfo id="right_26" depart="63.00" departLane="51o_0" departPos="5.10" departSpeed="0.00" departDelay="14.00" arrival="153.00" arrivalLane="52i_0" arrivalPos="10.00" arrivalSpeed="11.02" duration="90.00" routeLength="1015.10" waitSteps="0" timeLoss="13.77" rerouteNo="0" devices="tripinfo_right_26" vType="typeWE" speedFactor="1.00" vaporized=""/>
    <tripinfo id="left_32" depart="62.00" departLane="52o_0" departPos="5.10" departSpeed="0.00" departDelay="4.00" arrival="154.00" arrivalLane="51i_0" arrivalPos="10.00" arrivalSpeed="11.81" duration="92.00" routeLength="1015.10" waitSteps="0" timeLoss="15.34" rerouteNo="0" devices="tripinfo_left_32" vType="typeWE" speedFactor="1.00" vaporized=""/>
    <tripinfo id="right_30" depart="68.00" departLane="51o_0" departPos="5.10" departSpeed="0.00" departDelay="12.00" arrival="161.00" arrivalLane="52i_0" arrivalPos="10.00" arrivalSpeed="11.47" duration="93.00" routeLength="1015.10" waitSteps="0" timeLoss="16.29" rerouteNo="0" devices="tripinfo_right_30" vType="typeWE" speedFactor="1.00" vaporized=""/>
    <tripinfo id="left_34" depart="73.00" departLane="52o_0" departPos="5.10" departSpeed="0.00" departDelay="0.00" arrival="164.00" arrivalLane="51i_0" arrivalPos="10.00" arrivalSpeed="11.67" duration="91.00" routeLength="1015.10" waitSteps="0" timeLoss="14.37" rerouteNo="0" devices="tripinfo_left_34" vType="typeWE" speedFactor="1.00" vaporized=""/>
    <tripinfo id="up_12" depart="26.00" departLane="53o_0" departPos="5.10" departSpeed="0.00" departDelay="0.00" arrival="176.00" arrivalLane="54i_0" arrivalPos="10.00" arrivalSpeed="10.75" duration="150.00" routeLength="1015.10" waitSteps="47" timeLoss="74.03" rerouteNo="0" devices="tripinfo_up_12" vType="typeNS" speedFactor="1.00" vaporized=""/>
    <tripinfo id="down_5" depart="19.00" departLane="54o_0" departPos="5.10" departSpeed="0.00" departDelay="3.00" arrival="176.00" arrivalLane="53i_0" arrivalPos="10.00" arrivalSpeed="11.52" duration="157.00" routeLength="1015.10" waitSteps="55" timeLoss="80.72" rerouteNo="0" devices="tripinfo_down_5" vType="typeNS" speedFactor="1.00" vaporized=""/>
    <tripinfo id="up_14" depart="31.00" departLane="53o_0" departPos="5.10" departSpeed="0.00" departDelay="1.00" arrival="179.00" arrivalLane="54i_0" arrivalPos="10.00" arrivalSpeed="11.32" duration="148.00" routeLength="1015.10" waitSteps="44" timeLoss="71.41" rerouteNo="0" devices="tripinfo_up_14" vType="typeNS" speedFactor="1.00" vaporized=""/>
    <tripinfo id="down_10" depart="24.00" departLane="54o_0" departPos="5.10" departSpeed="0.00" departDelay="0.00" arrival="179.00" arrivalLane="53i_0" arrivalPos="10.00" arrivalSpeed="11.46" duration="155.00" routeLength="1015.10" waitSteps="52" timeLoss="78.39" rerouteNo="0" devices="tripinfo_down_10" vType="typeNS" speedFactor="1.00" vaporized=""/>
    <tripinfo id="down_11" depart="29.00" departLane="54o_0" departPos="5.10" departSpeed="0.00" departDelay="4.00" arrival="180.00" arrivalLane="53i_0" arrivalPos="10.00" arrivalSpeed="10.97" duration="151.00" routeLength="1015.10" waitSteps="48" timeLoss="75.03" rerouteNo="0" devices="tripinfo_down_11" vType="typeNS" speedFactor="1.00" vaporized=""/>
    <tripinfo id="up_19" depart="36.00" departLane="53o_0" departPos="5.10" departSpeed="0.00" departDelay="2.00" arrival="181.00" arrivalLane="54i_0" arrivalPos="10.00" arrivalSpeed="11.57" duration="145.00" routeLength="1015.10" waitSteps="40" timeLoss="68.58" rerouteNo="0" devices="tripinfo_up_19" vType="typeNS" speedFactor="1.00" vaporized=""/>
    <tripinfo id="down_29" depart="55.00" departLane="54o_0" departPos="5.10" departSpeed="0.00" departDelay="0.00" arrival="182.00" arrivalLane="53i_0" arrivalPos="10.00" arrivalSpeed="11.40" duration="127.00" routeLength="1015.10" waitSteps="23" timeLoss="51.16" rerouteNo="0" devices="tripinfo_down_29" vType="typeNS" speedFactor="1.00" vaporized=""/>
    <tripinfo id="up_20" depart="42.00" departLane="53o_0" departPos="5.10" departSpeed="0.00" departDelay="5.00" arrival="183.00" arrivalLane="54i_0" arrivalPos="10.00" arrivalSpeed="11.45" duration="141.00" routeLength="1015.10" waitSteps="38" timeLoss="64.32" rerouteNo="0" devices="tripinfo_up_20" vType="typeNS" speedFactor="1.00" vaporized=""/>
    <tripinfo id="up_22" depart="47.00" departLane="53o_0" departPos="5.10" departSpeed="0.00" departDelay="4.00" arrival="184.00" arrivalLane="54i_0" arrivalPos="10.00" arrivalSpeed="11.44" duration="137.00" routeLength="1015.10" waitSteps="34" timeLoss="61.20" rerouteNo="0" devices="tripinfo_up_22" vType="typeNS" speedFactor="1.00" vaporized=""/>
    <tripinfo id="down_35" depart="75.00" departLane="54o_0" departPos="5.10" departSpeed="0.00" departDelay="0.00" arrival="185.00" arrivalLane="53i_0" arrivalPos="10.00" arrivalSpeed="11.33" duration="110.00" routeLength="1015.10" waitSteps="6" timeLoss="33.46" rerouteNo="0" devices="tripinfo_down_35" vType="typeNS" speedFactor="1.00" vaporized=""/>
    <tripinfo id="down_39" depart="93.00" departLane="54o_0" departPos="5.10" departSpeed="0.00" departDelay="0.00" arrival="186.00" arrivalLane="53i_0" arrivalPos="10.00" arrivalSpeed="11.54" duration="93.00" routeLength="1015.10" waitSteps="0" timeLoss="17.07" rerouteNo="0" devices="tripinfo_down_39" vType="typeNS" speedFactor="1.00" vaporized=""/>
    <tripinfo id="up_25" depart="52.00" departLane="53o_0" departPos="5.10" departSpeed="0.00" departDelay="4.00" arrival="187.00" arrivalLane="54i_0" arrivalPos="10.00" arrivalSpeed="11.59" duration="135.00" routeLength="1015.10" waitSteps="29" timeLoss="58.84" rerouteNo="0" devices="tripinfo_up_25" vType="typeNS" speedFactor="1.00" vaporized=""/>
    <tripinfo id="up_28" depart="57.00" departLane="53o_0" departPos="5.10" departSpeed="0.00" departDelay="5.00" arrival="189.00" arrivalLane="54i_0" arrivalPos="10.00" arrivalSpeed="11.34" duration="132.00" routeLength="1015.10" waitSteps="25" timeLoss="55.66" rerouteNo="0" devices="tripinfo_up_28" vType="typeNS" speedFactor="1.00" vaporized=""/>
    <tripinfo id="up_33" depart="68.00" departLane="53o_0" departPos="5.10" departSpeed="0.00" departDelay="0.00" arrival="191.00" arrivalLane="54i_0" arrivalPos="10.00" arrivalSpeed="11.50" duration="123.00" routeLength="1015.10" waitSteps="16" timeLoss="46.91" rerouteNo="0" devices="tripinfo_up_33" vType="typeNS" speedFactor="1.00" vaporized=""/>
    <tripinfo id="up_36" depart="79.00" departLane="53o_0" departPos="5.10" departSpeed="0.00" departDelay="0.00" arrival="193.00" arrivalLane="54i_0" arrivalPos="10.00" arrivalSpeed="11.48" duration="114.00" routeLength="1015.10" waitSteps="8" timeLoss="38.08" rerouteNo="0" devices="tripinfo_up_36" vType="typeNS" speedFactor="1.00" vaporized=""/>
    <tripinfo id="up_44" depart="106.00" departLane="53o_0" departPos="5.10" departSpeed="0.00" departDelay="0.00" arrival="196.00" arrivalLane="54i_0" arrivalPos="10.00" arrivalSpeed="11.54" duration="90.00" routeLength="1015.10" waitSteps="0" timeLoss="13.79" rerouteNo="0" devices="tripinfo_up_44" vType="typeNS" speedFactor="1.00" vaporized=""/>
    <tripinfo id="down_46" depart="111.00" departLane="54o_0" departPos="5.10" departSpeed="0.00" departDelay="0.00" arrival="202.00" arrivalLane="53i_0" arrivalPos="10.00" arrivalSpeed="11.66" duration="91.00" routeLength="1015.10" waitSteps="0" timeLoss="14.25" rerouteNo="0" devices="tripinfo_down_46" vType="typeNS" speedFactor="1.00" vaporized=""/>
    <tripinfo id="down_48" depart="116.00" departLane="54o_0" departPos="5.10" departSpeed="0.00" departDelay="3.00" arrival="207.00" arrivalLane="53i_0" arrivalPos="10.00" arrivalSpeed="11.67" duration="91.00" routeLength="1015.10" waitSteps="0" timeLoss="14.97" rerouteNo="0" devices="tripinfo_down_48" vType="typeNS" speedFactor="1.00" vaporized=""/>
    <tripinfo id="down_50" depart="122.00" departLane="54o_0" departPos="5.10" departSpeed="0.00" departDelay="0.00" arrival="214.00" arrivalLane="53i_0" arrivalPos="10.00" arrivalSpeed="11.46" duration="92.00" routeLength="1015.10" waitSteps="0" timeLoss="15.67" rerouteNo="0" devices="tripinfo_down_50" vType="typeNS" speedFactor="1.00" vaporized=""/>
    <tripinfo id="up_51" depart="123.00" departLane="53o_0" departPos="5.10" departSpeed="0.00" departDelay="0.00" arrival="215.00" arrivalLane="54i_0" arrivalPos="10.00" arrivalSpeed="11.35" duration="92.00" routeLength="1015.10" waitSteps="0" timeLoss="15.38" rerouteNo="0" devices="tripinfo_up_51" vType="typeNS" speedFactor="1.00" vaporized=""/>
    <tripinfo id="up_53" depart="128.00" departLane="53o_0" departPos="5.10" departSpeed="0.00" departDelay="2.00" arrival="219.00" arrivalLane="54i_0" arrivalPos="10.00" arrivalSpeed="11.71" duration="91.00" routeLength="1015.10" waitSteps="0" timeLoss="14.96" rerouteNo="0" devices="tripinfo_up_53" vType="typeNS" speedFactor="1.00" vaporized=""/>
    <tripinfo id="right_37" depart="81.00" departLane="51o_0" departPos="5.10" departSpeed="0.00" departDelay="0.00" arrival="236.00" arrivalLane="52i_0" arrivalPos="10.00" arrivalSpeed="11.75" duration="155.00" routeLength="1015.10" waitSteps="52" timeLoss="79.26" rerouteNo="0" devices="tripinfo_right_37" vType="typeWE" speedFactor="1.00" vaporized=""/>
    <tripinfo id="left_40" depart="96.00" departLane="52o_0" departPos="5.10" departSpeed="0.00" departDelay="0.00" arrival="237.00" arrivalLane="51i_0" arrivalPos="10.00" arrivalSpeed="11.63" duration="141.00" routeLength="1015.10" waitSteps="37" timeLoss="64.41" rerouteNo="0" devices="tripinfo_left_40" vType="typeWE" speedFactor="1.00" vaporized=""/>
    <tripinfo id="left_41" depart="101.00" departLane="52o_0" departPos="5.10" departSpeed="0.00" departDelay="4.00" arrival="238.00" arrivalLane="51i_0" arrivalPos="10.00" arrivalSpeed="11.57" duration="137.00" routeLength="1015.10" waitSteps="33" timeLoss="61.16" rerouteNo="0" devices="tripinfo_left_41" vType="typeWE" speedFactor="1.00" vaporized=""/>
    <tripinfo id="right_38" depart="86.00" departLane="51o_0" departPos="5.10" departSpeed="0.00" departDelay="2.00" arrival="239.00" arrivalLane="52i_0" arrivalPos="10.00" arrivalSpeed="11.33" duration="153.00" routeLength="1015.10" waitSteps="48" timeLoss="77.13" rerouteNo="0" devices="tripinfo_right_38" vType="typeWE" speedFactor="1.00" vaporized=""/>
    <tripinfo id="right_42" depart="102.00" departLane="51o_0" departPos="5.10" departSpeed="0.00" departDelay="0.00" arrival="241.00" arrivalLane="52i_0" arrivalPos="10.00" arrivalSpeed="11.00" duration="139.00" routeLength="1015.10" waitSteps="35" timeLoss="62.97" rerouteNo="0" devices="tripinfo_right_42" vType="typeWE" speedFactor="1.00" vaporized=""/>
    <tripinfo id="left_43" depart="106.00" departLane="52o_0" departPos="5.10" departSpeed="0.00" departDelay="1.00" arrival="241.00" arrivalLane="51i_0" arrivalPos="10.00" arrivalSpeed="11.46" duration="135.00" routeLength="1015.10" waitSteps="30" timeLoss="58.62" rerouteNo="0" devices="tripinfo_left_43" vType="typeWE" speedFactor="1.00" vaporized=""/>
    <tripinfo id="left_47" depart="114.00" departLane="52o_0" departPos="5.10" departSpeed="0.00" departDelay="1.00" arrival="243.00" arrivalLane="51i_0" arrivalPos="10.00" arrivalSpeed="11.84" duration="129.00" routeLength="1015.10" waitSteps="25" timeLoss="52.31" rerouteNo="0" devices="tripinfo_left_47" vType="typeWE" speedFactor="1.00" vaporized=""/>
    <tripinfo id="right_45" depart="107.00" departLane="51o_0" departPos="5.10" departSpeed="0.00" departDelay="0.00" arrival="243.00" arrivalLane="52i_0" arrivalPos="10.00" arrivalSpeed="11.55" duration="136.00" routeLength="1015.10" waitSteps="32" timeLoss="60.12" rerouteNo="0" devices="tripinfo_right_45" vType="typeWE" speedFactor="1.00" vaporized=""/>
    <tripinfo id="left_49" depart="119.00" departLane="52o_0" departPos="5.10" departSpeed="0.00" departDelay="0.00" arrival="244.00" arrivalLane="51i_0" arrivalPos="10.00" arrivalSpeed="11.72" duration="125.00" routeLength="1015.10" waitSteps="20" timeLoss="49.27" rerouteNo="0" devices="tripinfo_left_49" vType="typeWE" speedFactor="1.00" vaporized=""/>
    <tripinfo id="right_58" depart="144.00" departLane="51o_0" departPos="5.10" departSpeed="0.00" departDelay="0.00" arrival="245.00" arrivalLane="52i_0" arrivalPos="10.00" arrivalSpeed="11.28" duration="101.00" routeLength="1015.10" waitSteps="0" timeLoss="24.84" rerouteNo="0" devices="tripinfo_right_58" vType="typeWE" speedFactor="1.00" vaporized=""/>
    <tripinfo id="left_52" depart="126.00" departLane="52o_0" departPos="5.10" departSpeed="0.00" departDelay="0.00" arrival="247.00" arrivalLane="51i_0" arrivalPos="10.00" arrivalSpeed="11.18" duration="121.00" routeLength="1015.10" waitSteps="16" timeLoss="44.98" rerouteNo="0" devices="tripinfo_left_52" vType="typeWE" speedFactor="1.00" vaporized=""/>
    <tripinfo id="right_60" depart="149.00" departLane="51o_0" departPos="5.10" departSpeed="0.00" departDelay="4.00" arrival="247.00" arrivalLane="52i_0" arrivalPos="10.00" arrivalSpeed="11.43" duration="98.00" routeLength="1015.10" waitSteps="0" timeLoss="21.70" rerouteNo="0" devices="tripinfo_right_60" vType="typeWE" speedFactor="1.00" vaporized=""/>
    <tripinfo id="left_54" depart="131.00" departLane="52o_0" departPos="5.10" departSpeed="0.00" departDelay="3.00" arrival="249.00" arrivalLane="51i_0" arrivalPos="10.00" arrivalSpeed="11.60" duration="118.00" routeLength="1015.10" waitSteps="12" timeLoss="41.78" rerouteNo="0" devices="tripinfo_left_54" vType="typeWE" speedFactor="1.00" vaporized=""/>
    <tripinfo id="right_62" depart="154.00" departLane="51o_0" departPos="5.10" departSpeed="0.00" departDelay="5.00" arrival="249.00" arrivalLane="52i_0" arrivalPos="10.00" arrivalSpeed="11.38" duration="95.00" routeLength="1015.10" waitSteps="0" timeLoss="18.67" rerouteNo="0" devices="tripinfo_right_62" vType="typeWE" speedFactor="1.00" vaporized=""/>
    <tripinfo id="left_55" depart="136.00" departLane="52o_0" departPos="5.10" departSpeed="0.00" departDelay="7.00" arrival="251.00" arrivalLane="51i_0" arrivalPos="10.00" arrivalSpeed="11.40" duration="115.00" routeLength="1015.10" waitSteps="8" timeLoss="38.59" rerouteNo="0" devices="tripinfo_left_55" vType="typeWE" speedFactor="1.00" vaporized=""/>
    <tripinfo id="left_56" depart="141.00" departLane="52o_0" departPos="5.10" departSpeed="0.00" departDelay="1.00" arrival="253.00" arrivalLane="51i_0" arrivalPos="10.00" arrivalSpeed="11.66" duration="112.00" routeLength="1015.10" waitSteps="6" timeLoss="35.78" rerouteNo="0" devices="tripinfo_left_56" vType="typeWE" speedFactor="1.00" vaporized=""/>
    <tripinfo id="left_59" depart="146.00" departLane="52o_0" departPos="5.10" departSpeed="0.00" departDelay="2.00" arrival="255.00" arrivalLane="51i_0" arrivalPos="10.00" arrivalSpeed="11.58" duration="109.00" routeLength="1015.10" waitSteps="1" timeLoss="32.93" rerouteNo="0" devices="tripinfo_left_59" vType="typeWE" speedFactor="1.00" vaporized=""/>
    <tripinfo id="left_66" depart="157.00" departLane="52o_0" departPos="5.10" departSpeed="0.00" departDelay="0.00" arrival="257.00" arrivalLane="51i_0" arrivalPos="10.00" arrivalSpeed="11.46" duration="100.00" routeLength="1015.10" waitSteps="0" timeLoss="23.89" rerouteNo="0" devices="tripinfo_left_66" vType="typeWE" speedFactor="1.00" vaporized=""/>
    <tripinfo id="right_71" depart="173.00" departLane="51o_0" departPos="5.10" departSpeed="0.00" departDelay="0.00" arrival="264.00" arrivalLane="52i_0" arrivalPos="10.00" arrivalSpeed="11.41" duration="91.00" routeLength="1015.10" waitSteps="0" timeLoss="14.75" rerouteNo="0" devices="tripinfo_right_71" vType="typeWE" speedFactor="1.00" vaporized=""/>
    <tripinfo id="left_75" depart="196.00" departLane="52o_0" departPos="5.10" departSpeed="0.00" departDelay="0.00" arrival="287.00" arrivalLane="51i_0" arrivalPos="10.00" arrivalSpeed="11.46" duration="91.00" routeLength="1015.10" waitSteps="0" timeLoss="14.18" rerouteNo="0" devices="tripinfo_left_75" vType="typeWE" speedFactor="1.00" vaporized=""/>
    <tripinfo id="right_74" depart="196.00" departLane="51o_0" departPos="5.10" departSpeed="0.00" departDelay="0.00" arrival="287.00" arrivalLane="52i_0" arrivalPos="10.00" arrivalSpeed="11.43" duration="91.00" routeLength="1015.10" waitSteps="0" timeLoss="15.03" rerouteNo="0" devices="tripinfo_right_74" vType="typeWE" speedFactor="1.00" vaporized=""/>
    <tripinfo id="up_67" depart="158.00" departLane="53o_0" departPos="5.10" departSpeed="0.00" departDelay="0.00" arrival="296.00" arrivalLane="54i_0" arrivalPos="10.00" arrivalSpeed="10.73" duration="138.00" routeLength="1015.10" waitSteps="35" timeLoss="62.05" rerouteNo="0" devices="tripinfo_up_67" vType="typeNS" speedFactor="1.00" vaporized=""/>
    <tripinfo id="down_57" depart="140.00" departLane="54o_0" departPos="5.10" departSpeed="0.00" departDelay="0.00" arrival="296.00" arrivalLane="53i_0" arrivalPos="10.00" arrivalSpeed="11.34" duration="156.00" routeLength="1015.10" waitSteps="54" timeLoss="79.85" rerouteNo="0" devices="tripinfo_down_57" vType="typeNS" speedFactor="1.00" vaporized=""/>
    <tripinfo id="up_68" depart="163.00" departLane="53o_0" departPos="5.10" departSpeed="0.00" departDelay="3.00" arrival="298.00" arrivalLane="54i_0" arrivalPos="10.00" arrivalSpeed="11.31" duration="135.00" routeLength="1015.10" waitSteps="33" timeLoss="59.19" rerouteNo="0" devices="tripinfo_up_68" vType="typeNS" speedFactor="1.00" vaporized=""/>
    <tripinfo id="down_61" depart="145.00" departLane="54o_0" departPos="5.10" departSpeed="0.00" departDelay="0.00" arrival="299.00" arrivalLane="53i_0" arrivalPos="10.00" arrivalSpeed="11.30" duration="154.00" routeLength="1015.10" waitSteps="51" timeLoss="77.68" rerouteNo="0" devices="tripinfo_down_61" vType="typeNS" speedFactor="1.00" vaporized=""/>
    <tripinfo id="up_70" depart="168.00" departLane="53o_0" departPos="5.10" departSpeed="0.00" departDelay="6.00" arrival="301.00" arrivalLane="54i_0" arrivalPos="10.00" arrivalSpeed="11.57" duration="133.00" routeLength="1015.10" waitSteps="29" timeLoss="56.43" rerouteNo="0" devices="tripinfo_up_70" vType="typeNS" speedFactor="1.00" vaporized=""/>
    <tripinfo id="down_63" depart="150.00" departLane="54o_0" departPos="5.10" departSpeed="0.00" departDelay="1.00" arrival="301.00" arrivalLane="53i_0" arrivalPos="10.00" arrivalSpeed="11.77" duration="151.00" routeLength="1015.10" waitSteps="46" timeLoss="74.72" rerouteNo="0" devices="tripinfo_down_63" vType="typeNS" speedFactor="1.00" vaporized=""/>
    <tripinfo id="up_73" depart="180.00" departLane="53o_0" departPos="5.10" departSpeed="0.00" departDelay="2.00" arrival="303.00" arrivalLane="54i_0" arrivalPos="10.00" arrivalSpeed="11.27" duration="123.00" routeLength="1015.10" waitSteps="19" timeLoss="46.38" rerouteNo="0" devices="tripinfo_up_73" vType="typeNS" speedFactor="1.00" vaporized=""/>
    <tripinfo id="down_64" depart="155.00" departLane="54o_0" departPos="5.10" departSpeed="0.00" departDelay="0.00" arrival="303.00" arrivalLane="53i_0" arrivalPos="10.00" arrivalSpeed="11.68" duration="148.00" routeLength="1015.10" waitSteps="44" timeLoss="71.50" rerouteNo="0" devices="tripinfo_down_64" vType="typeNS" speedFactor="1.00" vaporized=""/>
    <tripinfo id="up_77" depart="199.00" departLane="53o_0" departPos="5.10" departSpeed="0.00" departDelay="0.00" arrival="305.00" arrivalLane="54i_0" arrivalPos="10.00" arrivalSpeed="11.63" duration="106.00" routeLength="1015.10" waitSteps="1" timeLoss="29.63" rerouteNo="0" devices="tripinfo_up_77" vType="typeNS" speedFactor="1.00" vaporized=""/>
    <tripinfo id="down_65" depart="160.00" departLane="54o_0" departPos="5.10" departSpeed="0.00" departDelay="4.00" arrival="305.00" arrivalLane="53i_0" arrivalPos="10.00" arrivalSpeed="11.72" duration="145.00" routeLength="1015.10" waitSteps="40" timeLoss="68.62" rerouteNo="0" devices="tripinfo_down_65" vType="typeNS" speedFactor="1.00" vaporized=""/>
    <tripinfo id="up_78" depart="204.00" departLane="53o_0" departPos="5.10" departSpeed="0.00" departDelay="4.00" arrival="307.00" arrivalLane="54i_0" arrivalPos="10.00" arrivalSpeed="11.24" duration="103.00" routeLength="1015.10" waitSteps="0" timeLoss="26.50" rerouteNo="0" devices="tripinfo_up_78" vType="typeNS" speedFactor="1.00" vaporized=""/>
    <tripinfo id="down_69" depart="165.00" departLane="54o_0" departPos="5.10" departSpeed="0.00" departDelay="3.00" arrival="307.00" arrivalLane="53i_0" arrivalPos="10.00" arrivalSpeed="11.32" duration="142.00" routeLength="1015.10" waitSteps="36" timeLoss="65.76" rerouteNo="0" devices="tripinfo_down_69" vType="typeNS" speedFactor="1.00" vaporized=""/>
    <tripinfo id="up_79" depart="209.00" departLane="53o_0" departPos="5.10" departSpeed="0.00" departDelay="7.00" arrival="308.00" arrivalLane="54i_0" arrivalPos="10.00" arrivalSpeed="11.02" duration="99.00" routeLength="1015.10" waitSteps="0" timeLoss="23.01" rerouteNo="0" devices="tripinfo_up_79" vType="typeNS" speedFactor="1.00" vaporized=""/>
    <tripinfo id="down_72" depart="174.00" departLane="54o_0" departPos="5.10" departSpeed="0.00" departDelay="0.00" arrival="309.00" arrivalLane="53i_0" arrivalPos="10.00" arrivalSpeed="11.46" duration="135.00" routeLength="1015.10" waitSteps="28" timeLoss="58.50" rerouteNo="0" devices="tripinfo_down_72" vType="typeNS" speedFactor="1.00" vaporized=""/>
    <tripinfo id="up_80" depart="214.00" departLane="53o_0" departPos="5.10" departSpeed="0.00" departDelay="11.00" arrival="310.00" arrivalLane="54i_0" arrivalPos="10.00" arrivalSpeed="11.58" duration="96.00" routeLength="1015.10" waitSteps="0" timeLoss="20.07" rerouteNo="0" devices="tripinfo_up_80" vType="typeNS" speedFactor="1.00" vaporized=""/>
    <tripinfo id="down_84" depart="220.00" departLane="54o_0" departPos="5.10" departSpeed="0.00" departDelay="0.00" arrival="311.00" arrivalLane="53i_0" arrivalPos="10.00" arrivalSpeed="11.52" duration="91.00" routeLength="1015.10" waitSteps="0" timeLoss="15.04" rerouteNo="0" devices="tripinfo_down_84" vType="typeNS" speedFactor="1.00" vaporized=""/>