<?xml version="1.0" encoding="UTF-8"?>

<!-- generated on Mon Apr 30 16:35:51 2018 by SUMO Version 0.32.0
<?xml version="1.0" encoding="UTF-8"?>

<configuration xmlns:xsi="http://www.w3.org/2001/XMLSchema-instance" xsi:noNamespaceSchemaLocation="http://sumo.dlr.de/xsd/sumoConfiguration.xsd">

    <input>
        <net-file value="data/cross.net.xml"/>
        <route-files value="data/cross.rou.xml"/>
        <additional-files value="data/cross.det.xml"/>
    </input>

    <output>
        <summary-output value="data/cross.out"/>
        <tripinfo-output value="output/tripinfo33.xml"/>
    </output>

    <time>
        <begin value="0"/>
    </time>

    <report>
        <verbose value="true"/>
        <duration-log.statistics value="true"/>
        <no-step-log value="true"/>
    </report>

    <traci_server>
        <remote-port value="57024"/>
    </traci_server>

</configuration>
-->

<tripinfos xmlns:xsi="http://www.w3.org/2001/XMLSchema-instance" xsi:noNamespaceSchemaLocation="http://sumo.dlr.de/xsd/tripinfo_file.xsd">
    <tripinfo id="up_0" depart="11.00" departLane="53o_0" departPos="5.10" departSpeed="0.00" departDelay="0.00" arrival="102.00" arrivalLane="54i_0" arrivalPos="10.00" arrivalSpeed="11.64" duration="91.00" routeLength="1015.10" waitSteps="0" timeLoss="15.02" rerouteNo="0" devices="tripinfo_up_0" vType="typeNS" speedFactor="1.00" vaporized=""/>
    <tripinfo id="down_1" depart="12.00" departLane="54o_0" departPos="5.10" departSpeed="0.00" departDelay="0.00" arrival="103.00" arrivalLane="53i_0" arrivalPos="10.00" arrivalSpeed="11.20" duration="91.00" routeLength="1015.10" waitSteps="0" timeLoss="14.19" rerouteNo="0" devices="tripinfo_down_1" vType="typeNS" speedFactor="1.00" vaporized=""/>
    <tripinfo id="left_2" depart="15.00" departLane="52o_0" departPos="5.10" departSpeed="0.00" departDelay="0.00" arrival="109.00" arrivalLane="51i_0" arrivalPos="10.00" arrivalSpeed="11.31" duration="94.00" routeLength="1015.10" waitSteps="0" timeLoss="17.57" rerouteNo="0" devices="tripinfo_left_2" vType="typeWE" speedFactor="1.00" vaporized=""/>
    <tripinfo id="left_3" depart="22.00" departLane="52o_0" departPos="5.10" departSpeed="0.00" departDelay="0.00" arrival="112.00" arrivalLane="51i_0" arrivalPos="10.00" arrivalSpeed="11.74" duration="90.00" routeLength="1015.10" waitSteps="0" timeLoss="13.89" rerouteNo="0" devices="tripinfo_left_3" vType="typeWE" speedFactor="1.00" vaporized=""/>
    <tripinfo id="right_9" depart="56.00" departLane="51o_0" departPos="5.10" departSpeed="0.00" departDelay="0.00" arrival="147.00" arrivalLane="52i_0" arrivalPos="10.00" arrivalSpeed="11.51" duration="91.00" routeLength="1015.10" waitSteps="0" timeLoss="14.76" rerouteNo="0" devices="tripinfo_right_9" vType="typeWE" speedFactor="1.00" vaporized=""/>
    <tripinfo id="left_12" depart="60.00" departLane="52o_0" departPos="5.10" departSpeed="0.00" departDelay="0.00" arrival="152.00" arrivalLane="51i_0" arrivalPos="10.00" arrivalSpeed="11.52" duration="92.00" routeLength="1015.10" waitSteps="0" timeLoss="15.49" rerouteNo="0" devices="tripinfo_left_12" vType="typeWE" speedFactor="1.00" vaporized=""/>
    <tripinfo id="right_11" depart="61.00" departLane="51o_0" departPos="5.10" departSpeed="0.00" departDelay="3.00" arrival="153.00" arrivalLane="52i_0" arrivalPos="10.00" arrivalSpeed="11.51" duration="92.00" routeLength="1015.10" waitSteps="0" timeLoss="15.82" rerouteNo="0" devices="tripinfo_right_11" vType="typeWE" speedFactor="1.00" vaporized=""/>
    <tripinfo id="right_13" depart="66.00" departLane="51o_0" departPos="5.10" departSpeed="0.00" departDelay="5.00" arrival="157.00" arrivalLane="52i_0" arrivalPos="10.00" arrivalSpeed="11.69" duration="91.00" routeLength="1015.10" waitSteps="0" timeLoss="14.96" rerouteNo="0" devices="tripinfo_right_13" vType="typeWE" speedFactor="1.00" vaporized=""/>
    <tripinfo id="left_19" depart="71.00" departLane="52o_0" departPos="5.10" departSpeed="0.00" departDelay="0.00" arrival="161.00" arrivalLane="51i_0" arrivalPos="10.00" arrivalSpeed="11.45" duration="90.00" routeLength="1015.10" waitSteps="0" timeLoss="13.99" rerouteNo="0" devices="tripinfo_left_19" vType="typeWE" speedFactor="1.00" vaporized=""/>
    <tripinfo id="right_17" depart="71.00" departLane="51o_0" departPos="5.10" departSpeed="0.00" departDelay="5.00" arrival="163.00" arrivalLane="52i_0" arrivalPos="10.00" arrivalSpeed="11.60" duration="92.00" routeLength="1015.10" waitSteps="1" timeLoss="15.72" rerouteNo="0" devices="tripinfo_right_17" vType="typeWE" speedFactor="1.00" vaporized=""/>
    <tripinfo id="up_4" depart="24.00" departLane="53o_0" departPos="5.10" departSpeed="0.00" departDelay="0.00" arrival="176.00" arrivalLane="54i_0" arrivalPos="10.00" arrivalSpeed="11.17" duration="152.00" routeLength="1015.10" waitSteps="50" timeLoss="76.13" rerouteNo="0" devices="tripinfo_up_4" vType="typeNS" speedFactor="1.00" vaporized=""/>
    <tripinfo id="down_5" depart="32.00" departLane="54o_0" departPos="5.10" departSpeed="0.00" departDelay="0.00" arrival="177.00" arrivalLane="53i_0" arrivalPos="10.00" arrivalSpeed="11.53" duration="145.00" routeLength="1015.10" waitSteps="42" timeLoss="68.84" rerouteNo="0" devices="tripinfo_down_5" vType="typeNS" speedFactor="1.00" vaporized=""/>
    <tripinfo id="up_6" depart="36.00" departLane="53o_0" departPos="5.10" departSpeed="0.00" departDelay="0.00" arrival="178.00" arrivalLane="54i_0" arrivalPos="10.00" arrivalSpeed="11.65" duration="142.00" routeLength="1015.10" waitSteps="39" timeLoss="65.82" rerouteNo="0" devices="tripinfo_up_6" vType="typeNS" speedFactor="1.00" vaporized=""/>
    <tripinfo id="down_7" depart="44.00" departLane="54o_0" departPos="5.10" departSpeed="0.00" departDelay="0.00" arrival="179.00" arrivalLane="53i_0" arrivalPos="10.00" arrivalSpeed="10.92" duration="135.00" routeLength="1015.10" waitSteps="32" timeLoss="59.02" rerouteNo="0" devices="tripinfo_down_7" vType="typeNS" speedFactor="1.00" vaporized=""/>
    <tripinfo id="up_15" depart="62.00" departLane="53o_0" departPos="5.10" departSpeed="0.00" departDelay="0.00" arrival="180.00" arrivalLane="54i_0" arrivalPos="10.00" arrivalSpeed="11.39" duration="118.00" routeLength="1015.10" waitSteps="15" timeLoss="41.64" rerouteNo="0" devices="tripinfo_up_15" vType="typeNS" speedFactor="1.00" vaporized=""/>
    <tripinfo id="down_8" depart="50.00" departLane="54o_0" departPos="5.10" departSpeed="0.00" departDelay="0.00" arrival="181.00" arrivalLane="53i_0" arrivalPos="10.00" arrivalSpeed="11.86" duration="131.00" routeLength="1015.10" waitSteps="27" timeLoss="55.04" rerouteNo="0" devices="tripinfo_down_8" vType="typeNS" speedFactor="1.00" vaporized=""/>
    <tripinfo id="up_16" depart="67.00" departLane="53o_0" departPos="5.10" departSpeed="0.00" departDelay="3.00" arrival="182.00" arrivalLane="54i_0" arrivalPos="10.00" arrivalSpeed="11.61" duration="115.00" routeLength="1015.10" waitSteps="10" timeLoss="38.77" rerouteNo="0" devices="tripinfo_up_16" vType="typeNS" speedFactor="1.00" vaporized=""/>
    <tripinfo id="down_10" depart="56.00" departLane="54o_0" departPos="5.10" departSpeed="0.00" departDelay="0.00" arrival="183.00" arrivalLane="53i_0" arrivalPos="10.00" arrivalSpeed="11.48" duration="127.00" routeLength="1015.10" waitSteps="23" timeLoss="51.09" rerouteNo="0" devices="tripinfo_down_10" vType="typeNS" speedFactor="1.00" vaporized=""/>
    <tripinfo id="down_14" depart="62.00" departLane="54o_0" departPos="5.10" departSpeed="0.00" departDelay="1.00" arrival="185.00" arrivalLane="53i_0" arrivalPos="10.00" arrivalSpeed="10.80" duration="123.00" routeLength="1015.10" waitSteps="18" timeLoss="46.99" rerouteNo="0" devices="tripinfo_down_14" vType="typeNS" speedFactor="1.00" vaporized=""/>
    <tripinfo id="down_20" depart="82.00" departLane="54o_0" departPos="5.10" departSpeed="0.00" departDelay="0.00" arrival="188.00" arrivalLane="53i_0" arrivalPos="10.00" arrivalSpeed="11.52" duration="106.00" routeLength="1015.10" waitSteps="0" timeLoss="29.43" rerouteNo="0" devices="tripinfo_down_20" vType="typeNS" speedFactor="1.00" vaporized=""/>
    <tripinfo id="down_30" depart="110.00" departLane="54o_0" departPos="5.10" departSpeed="0.00" departDelay="0.00" arrival="201.00" arrivalLane="53i_0" arrivalPos="10.00" arrivalSpeed="11.57" duration="91.00" routeLength="1015.10" waitSteps="0" timeLoss="14.24" rerouteNo="0" devices="tripinfo_down_30" vType="typeNS" speedFactor="1.00" vaporized=""/>
    <tripinfo id="down_34" depart="116.00" departLane="54o_0" departPos="5.10" departSpeed="0.00" departDelay="0.00" arrival="208.00" arrivalLane="53i_0" arrivalPos="10.00" arrivalSpeed="11.56" duration="92.00" routeLength="1015.10" waitSteps="0" timeLoss="15.66" rerouteNo="0" devices="tripinfo_down_34" vType="typeNS" speedFactor="1.00" vaporized=""/>
    <tripinfo id="up_35" depart="121.00" departLane="53o_0" departPos="5.10" departSpeed="0.00" departDelay="0.00" arrival="211.00" arrivalLane="54i_0" arrivalPos="10.00" arrivalSpeed="11.33" duration="90.00" routeLength="1015.10" waitSteps="0" timeLoss="13.80" rerouteNo="0" devices="tripinfo_up_35" vType="typeNS" speedFactor="1.00" vaporized=""/>
    <tripinfo id="down_36" depart="126.00" departLane="54o_0" departPos="5.10" departSpeed="0.00" departDelay="0.00" arrival="218.00" arrivalLane="53i_0" arrivalPos="10.00" arrivalSpeed="11.54" duration="92.00" routeLength="1015.10" waitSteps="0" timeLoss="15.20" rerouteNo="0" devices="tripinfo_down_36" vType="typeNS" speedFactor="1.00" vaporized=""/>
    <tripinfo id="right_18" depart="77.00" departLane="51o_0" departPos="5.10" departSpeed="0.00" departDelay="7.00" arrival="235.00" arrivalLane="52i_0" arrivalPos="10.00" arrivalSpeed="11.81" duration="158.00" routeLength="1015.10" waitSteps="60" timeLoss="81.97" rerouteNo="0" devices="tripinfo_right_18" vType="typeWE" speedFactor="1.00" vaporized=""/>
    <tripinfo id="left_22" depart="87.00" departLane="52o_0" departPos="5.10" departSpeed="0.00" departDelay="0.00" arrival="236.00" arrivalLane="51i_0" arrivalPos="10.00" arrivalSpeed="11.48" duration="149.00" routeLength="1015.10" waitSteps="47" timeLoss="72.90" rerouteNo="0" devices="tripinfo_left_22" vType="typeWE" speedFactor="1.00" vaporized=""/>
    <tripinfo id="right_21" depart="86.00" departLane="51o_0" departPos="5.10" departSpeed="0.00" departDelay="0.00" arrival="238.00" arrivalLane="52i_0" arrivalPos="10.00" arrivalSpeed="11.48" duration="152.00" routeLength="1015.10" waitSteps="50" timeLoss="76.19" rerouteNo="0" devices="tripinfo_right_21" vType="typeWE" speedFactor="1.00" vaporized=""/>
    <tripinfo id="left_23" depart="92.00" departLane="52o_0" departPos="5.10" departSpeed="0.00" departDelay="4.00" arrival="238.00" arrivalLane="51i_0" arrivalPos="10.00" arrivalSpeed="11.42" duration="146.00" routeLength="1015.10" waitSteps="45" timeLoss="70.08" rerouteNo="0" devices="tripinfo_left_23" vType="typeWE" speedFactor="1.00" vaporized=""/>
    <tripinfo id="left_24" depart="97.00" departLane="52o_0" departPos="5.10" departSpeed="0.00" departDelay="3.00" arrival="240.00" arrivalLane="51i_0" arrivalPos="10.00" arrivalSpeed="10.74" duration="143.00" routeLength="1015.10" waitSteps="40" timeLoss="67.03" rerouteNo="0" devices="tripinfo_left_24" vType="typeWE" speedFactor="1.00" vaporized=""/>
    <tripinfo id="right_27" depart="103.00" departLane="51o_0" departPos="5.10" departSpeed="0.00" departDelay="0.00" arrival="241.00" arrivalLane="52i_0" arrivalPos="10.00" arrivalSpeed="11.21" duration="138.00" routeLength="1015.10" waitSteps="33" timeLoss="61.32" rerouteNo="0" devices="tripinfo_right_27" vType="typeWE" speedFactor="1.00" vaporized=""/>
    <tripinfo id="right_32" depart="113.00" departLane="51o_0" departPos="5.10" departSpeed="0.00" departDelay="0.00" arrival="242.00" arrivalLane="52i_0" arrivalPos="10.00" arrivalSpeed="10.93" duration="129.00" routeLength="1015.10" waitSteps="25" timeLoss="52.96" rerouteNo="0" devices="tripinfo_right_32" vType="typeWE" speedFactor="1.00" vaporized=""/>
    <tripinfo id="left_25" depart="102.00" departLane="52o_0" departPos="5.10" departSpeed="0.00" departDelay="7.00" arrival="243.00" arrivalLane="51i_0" arrivalPos="10.00" arrivalSpeed="11.63" duration="141.00" routeLength="1015.10" waitSteps="36" timeLoss="64.70" rerouteNo="0" devices="tripinfo_left_25" vType="typeWE" speedFactor="1.00" vaporized=""/>
    <tripinfo id="right_37" depart="131.00" departLane="51o_0" departPos="5.10" departSpeed="0.00" departDelay="0.00" arrival="245.00" arrivalLane="52i_0" arrivalPos="10.00" arrivalSpeed="11.61" duration="114.00" routeLength="1015.10" waitSteps="8" timeLoss="37.33" rerouteNo="0" devices="tripinfo_right_37" vType="typeWE" speedFactor="1.00" vaporized=""/>
    <tripinfo id="left_26" depart="107.00" departLane="52o_0" departPos="5.10" departSpeed="0.00" departDelay="10.00" arrival="245.00" arrivalLane="51i_0" arrivalPos="10.00" arrivalSpeed="11.62" duration="138.00" routeLength="1015.10" waitSteps="33" timeLoss="61.43" rerouteNo="0" devices="tripinfo_left_26" vType="typeWE" speedFactor="1.00" vaporized=""/>
    <tripinfo id="right_38" depart="136.00" departLane="51o_0" departPos="5.10" departSpeed="0.00" departDelay="4.00" arrival="246.00" arrivalLane="52i_0" arrivalPos="10.00" arrivalSpeed="11.20" duration="110.00" routeLength="1015.10" waitSteps="6" timeLoss="34.19" rerouteNo="0" devices="tripinfo_right_38" vType="typeWE" speedFactor="1.00" vaporized=""/>
    <tripinfo id="left_28" depart="113.00" departLane="52o_0" departPos="5.10" departSpeed="0.00" departDelay="10.00" arrival="247.00" arrivalLane="51i_0" arrivalPos="10.00" arrivalSpeed="11.36" duration="134.00" routeLength="1015.10" waitSteps="28" timeLoss="57.67" rerouteNo="0" devices="tripinfo_left_28" vType="typeWE" speedFactor="1.00" vaporized=""/>
    <tripinfo id="right_39" depart="141.00" departLane="51o_0" departPos="5.10" departSpeed="0.00" departDelay="7.00" arrival="248.00" arrivalLane="52i_0" arrivalPos="10.00" arrivalSpeed="11.47" duration="107.00" routeLength="1015.10" waitSteps="2" timeLoss="30.95" rerouteNo="0" devices="tripinfo_right_39" vType="typeWE" speedFactor="1.00" vaporized=""/>
    <tripinfo id="left_29" depart="118.00" departLane="52o_0" departPos="5.10" departSpeed="0.00" departDelay="10.00" arrival="249.00" arrivalLane="51i_0" arrivalPos="10.00" arrivalSpeed="11.68" duration="131.00" routeLength="1015.10" waitSteps="23" timeLoss="54.54" rerouteNo="0" devices="tripinfo_left_29" vType="typeWE" speedFactor="1.00" vaporized=""/>
    <tripinfo id="right_45" depart="146.00" departLane="51o_0" departPos="5.10" departSpeed="0.00" departDelay="1.00" arrival="250.00" arrivalLane="52i_0" arrivalPos="10.00" arrivalSpeed="11.58" duration="104.00" routeLength="1015.10" waitSteps="0" timeLoss="27.78" rerouteNo="0" devices="tripinfo_right_45" vType="typeWE" speedFactor="1.00" vaporized=""/>
    <tripinfo id="left_31" depart="123.00" departLane="52o_0" departPos="5.10" departSpeed="0.00" departDelay="11.00" arrival="251.00" arrivalLane="51i_0" arrivalPos="10.00" arrivalSpeed="11.56" duration="128.00" routeLength="1015.10" waitSteps="21" timeLoss="51.45" rerouteNo="0" devices="tripinfo_left_31" vType="typeWE" speedFactor="1.00" vaporized=""/>
    <tripinfo id="left_33" depart="128.00" departLane="52o_0" departPos="5.10" departSpeed="0.00" departDelay="14.00" arrival="252.00" arrivalLane="51i_0" arrivalPos="10.00" arrivalSpeed="11.06" duration="124.00" routeLength="1015.10" waitSteps="18" timeLoss="48.01" rerouteNo="0" devices="tripinfo_left_33" vType="typeWE" speedFactor="1.00" vaporized=""/>
    <tripinfo id="right_52" depart="155.00" departLane="51o_0" departPos="5.10" departSpeed="0.00" departDelay="0.00" arrival="252.00" arrivalLane="52i_0" arrivalPos="10.00" arrivalSpeed="11.54" duration="97.00" routeLength="1015.10" waitSteps="0" timeLoss="20.51" rerouteNo="0" devices="tripinfo_right_52" vType="typeWE" speedFactor="1.00" vaporized=""/>
    <tripinfo id="right_53" depart="161.00" departLane="51o_0" departPos="5.10" departSpeed="0.00" departDelay="3.00" arrival="254.00" arrivalLane="52i_0" arrivalPos="10.00" arrivalSpeed="11.40" duration="93.00" routeLength="1015.10" waitSteps="0" timeLoss="16.30" rerouteNo="0" devices="tripinfo_right_53" vType="typeWE" speedFactor="1.00" vaporized=""/>
    <tripinfo id="left_40" depart="139.00" departLane="52o_0" departPos="5.10" departSpeed="0.00" departDelay="0.00" arrival="254.00" arrivalLane="51i_0" arrivalPos="10.00" arrivalSpeed="11.45" duration="115.00" routeLength="1015.10" waitSteps="8" timeLoss="39.22" rerouteNo="0" devices="tripinfo_left_40" vType="typeWE" speedFactor="1.00" vaporized=""/>
    <tripinfo id="left_42" depart="144.00" departLane="52o_0" departPos="5.10" departSpeed="0.00" departDelay="1.00" arrival="256.00" arrivalLane="51i_0" arrivalPos="10.00" arrivalSpeed="11.34" duration="112.00" routeLength="1015.10" waitSteps="6" timeLoss="36.07" rerouteNo="0" devices="tripinfo_left_42" vType="typeWE" speedFactor="1.00" vaporized=""/>
    <tripinfo id="right_56" depart="167.00" departLane="51o_0" departPos="5.10" departSpeed="0.00" departDelay="0.00" arrival="258.00" arrivalLane="52i_0" arrivalPos="10.00" arrivalSpeed="11.64" duration="91.00" routeLength="1015.10" waitSteps="0" timeLoss="14.85" rerouteNo="0" devices="tripinfo_right_56" vType="typeWE" speedFactor="1.00" vaporized=""/>
    <tripinfo id="left_43" depart="149.00" departLane="52o_0" departPos="5.10" departSpeed="0.00" departDelay="5.00" arrival="258.00" arrivalLane="51i_0" arrivalPos="10.00" arrivalSpeed="11.74" duration="109.00" routeLength="1015.10" waitSteps="1" timeLoss="32.67" rerouteNo="0" devices="tripinfo_left_43" vType="typeWE" speedFactor="1.00" vaporized=""/>
    <tripinfo id="left_46" depart="154.00" departLane="52o_0" departPos="5.10" departSpeed="0.00" departDelay="8.00" arrival="260.00" arrivalLane="51i_0" arrivalPos="10.00" arrivalSpeed="11.79" duration="106.00" routeLength="1015.10" waitSteps="0" timeLoss="29.85" rerouteNo="0" devices="tripinfo_left_46" vType="typeWE" speedFactor="1.00" vaporized=""/>
    <tripinfo id="left_51" depart="159.00" departLane="52o_0" departPos="5.10" departSpeed="0.00" departDelay="7.00" arrival="262.00" arrivalLane="51i_0" arrivalPos="10.00" arrivalSpeed="11.32" duration="103.00" routeLength="1015.10" waitSteps="0" timeLoss="26.43" rerouteNo="0" devices="tripinfo_left_51" vType="typeWE" speedFactor="1.00" vaporized=""/>
    <tripinfo id="left_58" depart="169.00" departLane="52o_0" departPos="5.10" departSpeed="0.00" departDelay="0.00" arrival="264.00" arrivalLane="51i_0" arrivalPos="10.00" arrivalSpeed="11.72" duration="95.00" routeLength="1015.10" waitSteps="0" timeLoss="18.27" rerouteNo="0" devices="tripinfo_left_58" vType="typeWE" speedFactor="1.00" vaporized=""/>
    <tripinfo id="right_63" depart="178.00" departLane="51o_0" departPos="5.10" departSpeed="0.00" departDelay="0.00" arrival="269.00" arrivalLane="52i_0" arrivalPos="10.00" arrivalSpeed="11.81" duration="91.00" routeLength="1015.10" waitSteps="0" timeLoss="14.88" rerouteNo="0" devices="tripinfo_right_63" vType="typeWE" speedFactor="1.00" vaporized=""/>
    <tripinfo id="left_66" depart="189.00" departLane="52o_0" departPos="5.10" departSpeed="0.00" departDelay="0.00" arrival="280.00" arrivalLane="51i_0" arrivalPos="10.00" arrivalSpeed="11.43" duration="91.00" routeLength="1015.10" waitSteps="0" timeLoss="14.77" rerouteNo="0" devices="tripinfo_left_66" vType="typeWE" speedFactor="1.00" vaporized=""/>
    <tripinfo id="left_67" depart="194.00" departLane="52o_0" departPos="5.10" departSpeed="0.00" departDelay="4.00" arrival="286.00" arrivalLane="51i_0" arrivalPos="10.00" arrivalSpeed="11.34" duration="92.00" routeLength="1015.10" waitSteps="0" timeLoss="15.62" rerouteNo="0" devices="tripinfo_left_67" vType="typeWE" speedFactor="1.00" vaporized=""/>
    <tripinfo id="up_41" depart="141.00" departLane="53o_0" departPos="5.10" departSpeed="0.00" departDelay="0.00" arrival="297.00" arrivalLane="54i_0" arrivalPos="10.00" arrivalSpeed="11.66" duration="156.00" routeLength="1015.10" waitSteps="52" timeLoss="79.74" rerouteNo="0" devices="tripinfo_up_41" vType="typeNS" speedFactor="1.00" vaporized=""/>
    <tripinfo id="down_48" depart="148.00" departLane="54o_0" departPos="5.10" departSpeed="0.00" departDelay="0.00" arrival="297.00" arrivalLane="53i_0" arrivalPos="10.00" arrivalSpeed="11.48" duration="149.00" routeLength="1015.10" waitSteps="47" timeLoss="72.70" rerouteNo="0" devices="tripinfo_down_48" vType="typeNS" speedFactor="1.00" vaporized=""/>
    <tripinfo id="up_44" depart="146.00" departLane="53o_0" departPos="5.10" departSpeed="0.00" departDelay="2.00" arrival="299.00" arrivalLane="54i_0" arrivalPos="10.00" arrivalSpeed="11.38" duration="153.00" routeLength="1015.10" waitSteps="50" timeLoss="76.52" rerouteNo="0" devices="tripinfo_up_44" vType="typeNS" speedFactor="1.00" vaporized=""/>
    <tripinfo id="down_49" depart="153.00" departLane="54o_0" departPos="5.10" departSpeed="0.00" departDelay="4.00" arrival="299.00" arrivalLane="53i_0" arrivalPos="10.00" arrivalSpeed="11.54" duration="146.00" routeLength="1015.10" waitSteps="43" timeLoss="69.42" rerouteNo="0" devices="tripinfo_down_49" vType="typeNS" speedFactor="1.00" vaporized=""/>
    <tripinfo id="down_60" depart="172.00" departLane="54o_0" departPos="5.10" departSpeed="0.00" departDelay="0.00" arrival="300.00" arrivalLane="53i_0" arrivalPos="10.00" arrivalSpeed="11.75" duration="128.00" routeLength="1015.10" waitSteps="24" timeLoss="52.24" rerouteNo="0" devices="tripinfo_down_60" vType="typeNS" speedFactor="1.00" vaporized=""/>
    <tripinfo id="up_47" depart="151.00" departLane="53o_0" departPos="5.10" departSpeed="0.00" departDelay="4.00" arrival="301.00" arrivalLane="54i_0" arrivalPos="10.00" arrivalSpeed="11.34" duration="150.00" routeLength="1015.10" waitSteps="45" timeLoss="73.46" rerouteNo="0" devices="tripinfo_up_47" vType="typeNS" speedFactor="1.00" vaporized=""/>
    <tripinfo id="down_61" depart="182.00" departLane="54o_0" departPos="5.10" departSpeed="0.00" departDelay="7.00" arrival="302.00" arrivalLane="53i_0" arrivalPos="10.00" arrivalSpeed="11.05" duration="120.00" routeLength="1015.10" waitSteps="17" timeLoss="43.90" rerouteNo="0" devices="tripinfo_down_61" vType="typeNS" speedFactor="1.00" vaporized=""/>
    <tripinfo id="up_50" depart="156.00" departLane="53o_0" departPos="5.10" departSpeed="0.00" departDelay="6.00" arrival="302.00" arrivalLane="54i_0" arrivalPos="10.00" arrivalSpeed="11.72" duration="146.00" routeLength="1015.10" waitSteps="43" timeLoss="70.14" rerouteNo="0" devices="tripinfo_up_50" vType="typeNS" speedFactor="1.00" vaporized=""/>
    <tripinfo id="down_62" depart="187.00" departLane="54o_0" departPos="5.10" departSpeed="0.00" departDelay="11.00" arrival="304.00" arrivalLane="53i_0" arrivalPos="10.00" arrivalSpeed="10.85" duration="117.00" routeLength="1015.10" waitSteps="11" timeLoss="40.99" rerouteNo="0" devices="tripinfo_down_62" vType="typeNS" speedFactor="1.00" vaporized=""/>
    <tripinfo id="up_54" depart="161.00" departLane="53o_0" departPos="5.10" departSpeed="0.00" departDelay="0.00" arrival="305.00" arrivalLane="54i_0" arrivalPos="10.00" arrivalSpeed="11.36" duration="144.00" routeLength="1015.10" waitSteps="40" timeLoss="67.75" rerouteNo="0" devices="tripinfo_up_54" vType="typeNS" speedFactor="1.00" vaporized=""/>
    <tripinfo id="up_55" depart="166.00" departLane="53o_0" departPos="5.10" departSpeed="0.00" departDelay="0.00" arrival="307.00" arrivalLane="54i_0" arrivalPos="10.00" arrivalSpeed="11.49" duration="141.00" routeLength="1015.10" waitSteps="35" timeLoss="64.56" rerouteNo="0" devices="tripinfo_up_55" vType="typeNS" speedFactor="1.00" vaporized=""/>
    <tripinfo id="down_65" depart="193.00" departLane="54o_0" departPos="5.10" departSpeed="0.00" departDelay="6.00" arrival="307.00" arrivalLane="53i_0" arrivalPos="10.00" arrivalSpeed="11.73" duration="114.00" routeLength="1015.10" waitSteps="8" timeLoss="37.41" rerouteNo="0" devices="tripinfo_down_65" vType="typeNS" speedFactor="1.00" vaporized=""/>
    <tripinfo id="up_57" depart="171.00" departLane="53o_0" departPos="5.10" departSpeed="0.00" departDelay="3.00" arrival="309.00" arrivalLane="54i_0" arrivalPos="10.00" arrivalSpeed="11.25" duration="138.00" routeLength="1015.10" waitSteps="31" timeLoss="61.32" rerouteNo="0" devices="tripinfo_up_57" vType="typeNS" speedFactor="1.00" vaporized=""/>
    <tripinfo id="down_70" depart="198.00" departLane="54o_0" departPos="5.10" departSpeed="0.00" departDelay="4.00" arrival="309.00" arrivalLane="53i_0" arrivalPos="10.00" arrivalSpeed="11.24" duration="111.00" routeLength="1015.10" waitSteps="4" timeLoss="34.41" rerouteNo="0" devices="tripinfo_down_70" vType="typeNS" speedFactor="1.00" vaporized=""/>
    <tripinfo id="down_71" depart="203.00" departLane="54o_0" departPos="5.10" departSpeed="0.00" departDelay="8.00" arrival="310.00" arrivalLane="53i_0" arrivalPos="10.00" arrivalSpeed="10.88" duration="107.00" routeLength="1015.10" waitSteps="1" timeLoss="31.06" rerouteNo="0" devices="tripinfo_down_71" vType="typeNS" speedFactor="1.00" vaporized=""/>
    <tripinfo id="up_59" depart="177.00" departLane="53o_0" departPos="5.10" departSpeed="0.00" departDelay="8.00" arrival="311.00" arrivalLane="54i_0" arrivalPos="10.00" arrivalSpeed="11.38" duration="134.00" routeLength="1015.10" waitSteps="28" timeLoss="57.41" rerouteNo="0" devices="tripinfo_up_59" vType="typeNS" speedFactor="1.00" vaporized=""/>
    <tripinfo id="down_81" depart="213.00" departLane="54o_0" departPos="5.10" departSpeed="0.00" departDelay="0.00" arrival="312.00" arrivalLane="53i_0" arrivalPos="10.00" arrivalSpeed="10.74" duration="99.00" routeLength="1015.10" waitSteps="0" timeLoss="22.85" rerouteNo="0" devices="tripinfo_down_81" vType="typeNS" speedFactor="1.00" vaporized=""/>
    <tripinfo id="up_64" depart="183.00" departLane="53o_0" departPos="5.10" departSpeed="0.00" departDelay="0.00" arrival="312.00" arrivalLane="54i_0" arrivalPos="10.00" arrivalSpeed="11.54" duration="129.00" routeLength="1015.10" waitSteps="24" timeLoss="53.13" rerouteNo="0" devices="tripinfo_up_64" vType="typeNS" speedFactor="1.00" vaporized=""/>
    <tripinfo id="down_82" depart="218.00" departLane="54o_0" departPos="5.10" departSpeed="0.00" departDelay="3.00" arrival="314.00" arrivalLane="53i_0" arrivalPos="10.00" arrivalSpeed="11.61" duration="96.00" routeLength="1015.10" waitSteps="0" timeLoss="19.88" rerouteNo="0" devices="tripinfo_down_82" vType="typeNS" speedFactor="1.00" vaporized=""/>
    <tripinfo id="up_68" depart="190.00" departLane="53o_0" departPos="5.10" departSpeed="0.00" departDelay="0.00" arrival="315.00" arrivalLane="54i_0" arrivalPos="10.00" arrivalSpeed="11.24" duration="125.00" routeLength="1015.10" waitSteps="19" timeLoss="48.41" rerouteNo="0" devices="tripinfo_up_68" vType="typeNS" speedFactor="1.00" vaporized=""/>
    <tripinfo id="up_69" depart="195.00" departLane="53o_0" departPos="5.10" departSpeed="0.00" departDelay="4.00" arrival="317.00" arrivalLane="54i_0" arrivalPos="10.00" arrivalSpeed="11.26" duration="122.00" routeLength="1015.10" waitSteps="15" timeLoss="45.26" rerouteNo="0" devices="tripinfo_up_69" vType="typeNS" speedFactor="1.00" vaporized=""/>
    <tripinfo id="up_73" depart="202.00" departLane="53o_0" departPos="5.10" departSpeed="0.00" departDelay="0.00" arrival="318.00" arrivalLane="54i_0" arrivalPos="10.00" arrivalSpeed="10.92" duration="116.00" routeLength="1015.10" waitSteps="9" timeLoss="39.90" rerouteNo="0" devices="tripinfo_up_73" vType="typeNS" speedFactor="1.00" vaporized=""/>
    <tripinfo id="up_76" depart="208.00" departLane="53o_0" departPos="5.10" departSpeed="0.00" departDelay="2.00" arrival="321.00" arrivalLane="54i_0" arrivalPos="10.00" arrivalSpeed="11.55" duration="113.00" routeLength="1015.10" waitSteps="6" timeLoss="36.22" rerouteNo="0" devices="tripinfo_up_76" vType="typeNS" speedFactor="1.00" vaporized=""/>
    <tripinfo id="up_77" depart="213.00" departLane="53o_0" departPos="5.10" departSpeed="0.00" departDelay="6.00" arrival="323.00" arrivalLane="54i_0" arrivalPos="10.00" arrivalSpeed="11.56" duration="110.00" routeLength="1015.10" waitSteps="1" timeLoss="33.18" rerouteNo="0" devices="tripinfo_up_77" vType="typeNS" speedFactor="1.00" vaporized=""/>
    <tripinfo id="up_80" depart="219.00" departLane="53o_0" departPos="5.10" departSpeed="0.00" departDelay="7.00" arrival="324.00" arrivalLane="54i_0" arrivalPos="10.00" arrivalSpeed="11.04" duration="105.00" routeLength="1015.10" waitSteps="0" timeLoss="28.88" rerouteNo="0" devices="tripinfo_up_80" vType="typeNS" speedFactor="1.00" vaporized=""/>
    <tripinfo id="up_84" depart="224.00" departLane="53o_0" departPos="5.10" departSpeed="0.00" departDelay="2.00" arrival="326.00" arrivalLane="54i_0" arrivalPos="10.00" arrivalSpeed="11.20" duration="102.00" routeLength="1015.10" waitSteps="0" timeLoss="26.12" rerouteNo="0" devices="tripinfo_up_84" vType="typeNS" speedFactor="1.00" vaporized=""/>
    <tripinfo id="down_89" depart="237.00" departLane="54o_0" departPos="5.10" departSpeed="0.00" departDelay="0.00" arrival="328.00" arrivalLane="53i_0" arrivalPos="10.00" arrivalSpeed="11.63" duration="91.00" routeLength="1015.10" waitSteps="0" timeLoss="14.99" rerouteNo="0" devices="tripinfo_down_89" vType="typeNS" speedFactor="1.00" vaporized=""/>
    <tripinfo id="left_78" depart="210.00" departLane="52o_0" departPos="5.10" departSpeed="0.00" departDelay="0.00" arrival="356.00" arrivalLane="51i_0" arrivalPos="10.00" arrivalSpeed="11.55" duration="146.00" routeLength="1015.10" waitSteps="44" timeLoss="69.44" rerouteNo="0" devices="tripinfo_left_78" vType="typeWE" speedFactor="1.00" vaporized=""/>