<?xml version="1.0" encoding="UTF-8"?>

<!-- generated on Mon Apr 30 16:35:01 2018 by SUMO Version 0.32.0
<?xml version="1.0" encoding="UTF-8"?>

<configuration xmlns:xsi="http://www.w3.org/2001/XMLSchema-instance" xsi:noNamespaceSchemaLocation="http://sumo.dlr.de/xsd/sumoConfiguration.xsd">

    <input>
        <net-file value="data/cross.net.xml"/>
        <route-files value="data/cross.rou.xml"/>
        <additional-files value="data/cross.det.xml"/>
    </input>

    <output>
        <summary-output value="data/cross.out"/>
        <tripinfo-output value="output/tripinfo11.xml"/>
    </output>

    <time>
        <begin value="0"/>
    </time>

    <report>
        <verbose value="true"/>
        <duration-log.statistics value="true"/>
        <no-step-log value="true"/>
    </report>

    <traci_server>
        <remote-port value="44500"/>
    </traci_server>

</configuration>
-->

<tripinfos xmlns:xsi="http://www.w3.org/2001/XMLSchema-instance" xsi:noNamespaceSchemaLocation="http://sumo.dlr.de/xsd/tripinfo_file.xsd">
    <tripinfo id="down_3" depart="9.00" departLane="54o_0" departPos="5.10" departSpeed="0.00" departDelay="0.00" arrival="100.00" arrivalLane="53i_0" arrivalPos="10.00" arrivalSpeed="11.70" duration="91.00" routeLength="1015.10" waitSteps="0" timeLoss="14.76" rerouteNo="0" devices="tripinfo_down_3" vType="typeNS" speedFactor="1.00" vaporized=""/>
    <tripinfo id="up_6" depart="14.00" departLane="53o_0" departPos="5.10" departSpeed="0.00" departDelay="0.00" arrival="104.00" arrivalLane="54i_0" arrivalPos="10.00" arrivalSpeed="11.37" duration="90.00" routeLength="1015.10" waitSteps="0" timeLoss="14.01" rerouteNo="0" devices="tripinfo_up_6" vType="typeNS" speedFactor="1.00" vaporized=""/>
    <tripinfo id="down_5" depart="14.00" departLane="54o_0" departPos="5.10" departSpeed="0.00" departDelay="2.00" arrival="105.00" arrivalLane="53i_0" arrivalPos="10.00" arrivalSpeed="11.72" duration="91.00" routeLength="1015.10" waitSteps="0" timeLoss="14.64" rerouteNo="0" devices="tripinfo_down_5" vType="typeNS" speedFactor="1.00" vaporized=""/>
    <tripinfo id="right_0" depart="1.00" departLane="51o_0" departPos="5.10" departSpeed="0.00" departDelay="0.00" arrival="117.00" arrivalLane="52i_0" arrivalPos="10.00" arrivalSpeed="11.50" duration="116.00" routeLength="1015.10" waitSteps="13" timeLoss="39.48" rerouteNo="0" devices="tripinfo_right_0" vType="typeWE" speedFactor="1.00" vaporized=""/>
    <tripinfo id="left_1" depart="7.00" departLane="52o_0" departPos="5.10" departSpeed="0.00" departDelay="0.00" arrival="117.00" arrivalLane="51i_0" arrivalPos="10.00" arrivalSpeed="11.30" duration="110.00" routeLength="1015.10" waitSteps="7" timeLoss="33.41" rerouteNo="0" devices="tripinfo_left_1" vType="typeWE" speedFactor="1.00" vaporized=""/>
    <tripinfo id="right_11" depart="21.00" departLane="51o_0" departPos="5.10" departSpeed="0.00" departDelay="0.00" arrival="119.00" arrivalLane="52i_0" arrivalPos="10.00" arrivalSpeed="11.76" duration="98.00" routeLength="1015.10" waitSteps="0" timeLoss="21.54" rerouteNo="0" devices="tripinfo_right_11" vType="typeWE" speedFactor="1.00" vaporized=""/>
    <tripinfo id="left_2" depart="12.00" departLane="52o_0" departPos="5.10" departSpeed="0.00" departDelay="4.00" arrival="119.00" arrivalLane="51i_0" arrivalPos="10.00" arrivalSpeed="11.62" duration="107.00" routeLength="1015.10" waitSteps="3" timeLoss="30.39" rerouteNo="0" devices="tripinfo_left_2" vType="typeWE" speedFactor="1.00" vaporized=""/>
    <tripinfo id="left_4" depart="17.00" departLane="52o_0" departPos="5.10" departSpeed="0.00" departDelay="6.00" arrival="121.00" arrivalLane="51i_0" arrivalPos="10.00" arrivalSpeed="11.51" duration="104.00" routeLength="1015.10" waitSteps="0" timeLoss="27.53" rerouteNo="0" devices="tripinfo_left_4" vType="typeWE" speedFactor="1.00" vaporized=""/>
    <tripinfo id="right_15" depart="33.00" departLane="51o_0" departPos="5.10" departSpeed="0.00" departDelay="0.00" arrival="125.00" arrivalLane="52i_0" arrivalPos="10.00" arrivalSpeed="11.38" duration="92.00" routeLength="1015.10" waitSteps="0" timeLoss="15.85" rerouteNo="0" devices="tripinfo_right_15" vType="typeWE" speedFactor="1.00" vaporized=""/>
    <tripinfo id="right_16" depart="38.00" departLane="51o_0" departPos="5.10" departSpeed="0.00" departDelay="3.00" arrival="129.00" arrivalLane="52i_0" arrivalPos="10.00" arrivalSpeed="11.36" duration="91.00" routeLength="1015.10" waitSteps="0" timeLoss="14.66" rerouteNo="0" devices="tripinfo_right_16" vType="typeWE" speedFactor="1.00" vaporized=""/>
    <tripinfo id="right_18" depart="45.00" departLane="51o_0" departPos="5.10" departSpeed="0.00" departDelay="0.00" arrival="136.00" arrivalLane="52i_0" arrivalPos="10.00" arrivalSpeed="11.72" duration="91.00" routeLength="1015.10" waitSteps="0" timeLoss="15.04" rerouteNo="0" devices="tripinfo_right_18" vType="typeWE" speedFactor="1.00" vaporized=""/>
    <tripinfo id="right_20" depart="61.00" departLane="51o_0" departPos="5.10" departSpeed="0.00" departDelay="0.00" arrival="152.00" arrivalLane="52i_0" arrivalPos="10.00" arrivalSpeed="11.57" duration="91.00" routeLength="1015.10" waitSteps="0" timeLoss="14.40" rerouteNo="0" devices="tripinfo_right_20" vType="typeWE" speedFactor="1.00" vaporized=""/>
    <tripinfo id="right_21" depart="68.00" departLane="51o_0" departPos="5.10" departSpeed="0.00" departDelay="0.00" arrival="159.00" arrivalLane="52i_0" arrivalPos="10.00" arrivalSpeed="11.35" duration="91.00" routeLength="1015.10" waitSteps="0" timeLoss="14.69" rerouteNo="0" devices="tripinfo_right_21" vType="typeWE" speedFactor="1.00" vaporized=""/>
    <tripinfo id="left_23" depart="72.00" departLane="52o_0" departPos="5.10" departSpeed="0.00" departDelay="0.00" arrival="162.00" arrivalLane="51i_0" arrivalPos="10.00" arrivalSpeed="10.97" duration="90.00" routeLength="1015.10" waitSteps="0" timeLoss="13.82" rerouteNo="0" devices="tripinfo_left_23" vType="typeWE" speedFactor="1.00" vaporized=""/>
    <tripinfo id="left_24" depart="77.00" departLane="52o_0" departPos="5.10" departSpeed="0.00" departDelay="3.00" arrival="167.00" arrivalLane="51i_0" arrivalPos="10.00" arrivalSpeed="11.36" duration="90.00" routeLength="1015.10" waitSteps="0" timeLoss="13.88" rerouteNo="0" devices="tripinfo_left_24" vType="typeWE" speedFactor="1.00" vaporized=""/>
    <tripinfo id="down_7" depart="19.00" departLane="54o_0" departPos="5.10" departSpeed="0.00" departDelay="4.00" arrival="177.00" arrivalLane="53i_0" arrivalPos="10.00" arrivalSpeed="11.58" duration="158.00" routeLength="1015.10" waitSteps="56" timeLoss="81.87" rerouteNo="0" devices="tripinfo_down_7" vType="typeNS" speedFactor="1.00" vaporized=""/>
    <tripinfo id="up_10" depart="19.00" departLane="53o_0" departPos="5.10" departSpeed="0.00" departDelay="1.00" arrival="177.00" arrivalLane="54i_0" arrivalPos="10.00" arrivalSpeed="11.27" duration="158.00" routeLength="1015.10" waitSteps="56" timeLoss="81.59" rerouteNo="0" devices="tripinfo_up_10" vType="typeNS" speedFactor="1.00" vaporized=""/>
    <tripinfo id="down_8" depart="24.00" departLane="54o_0" departPos="5.10" departSpeed="0.00" departDelay="8.00" arrival="179.00" arrivalLane="53i_0" arrivalPos="10.00" arrivalSpeed="11.84" duration="155.00" routeLength="1015.10" waitSteps="52" timeLoss="78.89" rerouteNo="0" devices="tripinfo_down_8" vType="typeNS" speedFactor="1.00" vaporized=""/>
    <tripinfo id="up_13" depart="31.00" departLane="53o_0" departPos="5.10" departSpeed="0.00" departDelay="0.00" arrival="179.00" arrivalLane="54i_0" arrivalPos="10.00" arrivalSpeed="11.43" duration="148.00" routeLength="1015.10" waitSteps="44" timeLoss="71.72" rerouteNo="0" devices="tripinfo_up_13" vType="typeNS" speedFactor="1.00" vaporized=""/>
    <tripinfo id="down_9" depart="29.00" departLane="54o_0" departPos="5.10" departSpeed="0.00" departDelay="11.00" arrival="181.00" arrivalLane="53i_0" arrivalPos="10.00" arrivalSpeed="11.23" duration="152.00" routeLength="1015.10" waitSteps="48" timeLoss="75.99" rerouteNo="0" devices="tripinfo_down_9" vType="typeNS" speedFactor="1.00" vaporized=""/>
    <tripinfo id="up_27" depart="84.00" departLane="53o_0" departPos="5.10" departSpeed="0.00" departDelay="0.00" arrival="181.00" arrivalLane="54i_0" arrivalPos="10.00" arrivalSpeed="11.43" duration="97.00" routeLength="1015.10" waitSteps="0" timeLoss="20.52" rerouteNo="0" devices="tripinfo_up_27" vType="typeNS" speedFactor="1.00" vaporized=""/>
    <tripinfo id="up_29" depart="89.00" departLane="53o_0" departPos="5.10" departSpeed="0.00" departDelay="0.00" arrival="182.00" arrivalLane="54i_0" arrivalPos="10.00" arrivalSpeed="10.86" duration="93.00" routeLength="1015.10" waitSteps="0" timeLoss="16.89" rerouteNo="0" devices="tripinfo_up_29" vType="typeNS" speedFactor="1.00" vaporized=""/>
    <tripinfo id="down_12" depart="34.00" departLane="54o_0" departPos="5.10" departSpeed="0.00" departDelay="4.00" arrival="183.00" arrivalLane="53i_0" arrivalPos="10.00" arrivalSpeed="11.22" duration="149.00" routeLength="1015.10" waitSteps="45" timeLoss="73.17" rerouteNo="0" devices="tripinfo_down_12" vType="typeNS" speedFactor="1.00" vaporized=""/>
    <tripinfo id="down_14" depart="39.00" departLane="54o_0" departPos="5.10" departSpeed="0.00" departDelay="7.00" arrival="185.00" arrivalLane="53i_0" arrivalPos="10.00" arrivalSpeed="10.84" duration="146.00" routeLength="1015.10" waitSteps="42" timeLoss="69.94" rerouteNo="0" devices="tripinfo_down_14" vType="typeNS" speedFactor="1.00" vaporized=""/>
    <tripinfo id="up_31" depart="97.00" departLane="53o_0" departPos="5.10" departSpeed="0.00" departDelay="0.00" arrival="187.00" arrivalLane="54i_0" arrivalPos="10.00" arrivalSpeed="11.34" duration="90.00" routeLength="1015.10" waitSteps="0" timeLoss="13.88" rerouteNo="0" devices="tripinfo_up_31" vType="typeNS" speedFactor="1.00" vaporized=""/>
    <tripinfo id="down_17" depart="43.00" departLane="54o_0" departPos="5.10" departSpeed="0.00" departDelay="4.00" arrival="188.00" arrivalLane="53i_0" arrivalPos="10.00" arrivalSpeed="11.35" duration="145.00" routeLength="1015.10" waitSteps="37" timeLoss="68.77" rerouteNo="0" devices="tripinfo_down_17" vType="typeNS" speedFactor="1.00" vaporized=""/>
    <tripinfo id="down_19" depart="57.00" departLane="54o_0" departPos="5.10" departSpeed="0.00" departDelay="0.00" arrival="190.00" arrivalLane="53i_0" arrivalPos="10.00" arrivalSpeed="11.31" duration="133.00" routeLength="1015.10" waitSteps="28" timeLoss="56.56" rerouteNo="0" devices="tripinfo_down_19" vType="typeNS" speedFactor="1.00" vaporized=""/>
    <tripinfo id="down_22" depart="71.00" departLane="54o_0" departPos="5.10" departSpeed="0.00" departDelay="0.00" arrival="192.00" arrivalLane="53i_0" arrivalPos="10.00" arrivalSpeed="11.71" duration="121.00" routeLength="1015.10" waitSteps="14" timeLoss="44.29" rerouteNo="0" devices="tripinfo_down_22" vType="typeNS" speedFactor="1.00" vaporized=""/>
    <tripinfo id="down_26" depart="81.00" departLane="54o_0" departPos="5.10" departSpeed="0.00" departDelay="0.00" arrival="194.00" arrivalLane="53i_0" arrivalPos="10.00" arrivalSpeed="11.54" duration="113.00" routeLength="1015.10" waitSteps="7" timeLoss="36.89" rerouteNo="0" devices="tripinfo_down_26" vType="typeNS" speedFactor="1.00" vaporized=""/>
    <tripinfo id="down_32" depart="99.00" departLane="54o_0" departPos="5.10" departSpeed="0.00" departDelay="0.00" arrival="196.00" arrivalLane="53i_0" arrivalPos="10.00" arrivalSpeed="11.44" duration="97.00" routeLength="1015.10" waitSteps="0" timeLoss="20.55" rerouteNo="0" devices="tripinfo_down_32" vType="typeNS" speedFactor="1.00" vaporized=""/>
    <tripinfo id="down_34" depart="107.00" departLane="54o_0" departPos="5.10" departSpeed="0.00" departDelay="0.00" arrival="198.00" arrivalLane="53i_0" arrivalPos="10.00" arrivalSpeed="11.72" duration="91.00" routeLength="1015.10" waitSteps="0" timeLoss="14.93" rerouteNo="0" devices="tripinfo_down_34" vType="typeNS" speedFactor="1.00" vaporized=""/>
    <tripinfo id="up_35" depart="114.00" departLane="53o_0" departPos="5.10" departSpeed="0.00" departDelay="0.00" arrival="205.00" arrivalLane="54i_0" arrivalPos="10.00" arrivalSpeed="11.69" duration="91.00" routeLength="1015.10" waitSteps="0" timeLoss="14.93" rerouteNo="0" devices="tripinfo_up_35" vType="typeNS" speedFactor="1.00" vaporized=""/>
    <tripinfo id="up_37" depart="120.00" departLane="53o_0" departPos="5.10" departSpeed="0.00" departDelay="2.00" arrival="211.00" arrivalLane="54i_0" arrivalPos="10.00" arrivalSpeed="11.39" duration="91.00" routeLength="1015.10" waitSteps="0" timeLoss="14.30" rerouteNo="0" devices="tripinfo_up_37" vType="typeNS" speedFactor="1.00" vaporized=""/>
    <tripinfo id="down_39" depart="121.00" departLane="54o_0" departPos="5.10" departSpeed="0.00" departDelay="0.00" arrival="213.00" arrivalLane="53i_0" arrivalPos="10.00" arrivalSpeed="11.47" duration="92.00" routeLength="1015.10" waitSteps="0" timeLoss="15.21" rerouteNo="0" devices="tripinfo_down_39" vType="typeNS" speedFactor="1.00" vaporized=""/>
    <tripinfo id="down_40" depart="127.00" departLane="54o_0" departPos="5.10" departSpeed="0.00" departDelay="0.00" arrival="217.00" arrivalLane="53i_0" arrivalPos="10.00" arrivalSpeed="10.80" duration="90.00" routeLength="1015.10" waitSteps="0" timeLoss="13.85" rerouteNo="0" devices="tripinfo_down_40" vType="typeNS" speedFactor="1.00" vaporized=""/>
    <tripinfo id="down_42" depart="132.00" departLane="54o_0" departPos="5.10" departSpeed="0.00" departDelay="3.00" arrival="223.00" arrivalLane="53i_0" arrivalPos="10.00" arrivalSpeed="11.60" duration="91.00" routeLength="1015.10" waitSteps="0" timeLoss="14.89" rerouteNo="0" devices="tripinfo_down_42" vType="typeNS" speedFactor="1.00" vaporized=""/>
    <tripinfo id="right_28" depart="85.00" departLane="51o_0" departPos="5.10" departSpeed="0.00" departDelay="0.00" arrival="236.00" arrivalLane="52i_0" arrivalPos="10.00" arrivalSpeed="11.22" duration="151.00" routeLength="1015.10" waitSteps="50" timeLoss="75.24" rerouteNo="0" devices="tripinfo_right_28" vType="typeWE" speedFactor="1.00" vaporized=""/>
    <tripinfo id="left_25" depart="82.00" departLane="52o_0" departPos="5.10" departSpeed="0.00" departDelay="4.00" arrival="236.00" arrivalLane="51i_0" arrivalPos="10.00" arrivalSpeed="11.41" duration="154.00" routeLength="1015.10" waitSteps="52" timeLoss="77.92" rerouteNo="0" devices="tripinfo_left_25" vType="typeWE" speedFactor="1.00" vaporized=""/>
    <tripinfo id="left_30" depart="93.00" departLane="52o_0" departPos="5.10" departSpeed="0.00" departDelay="0.00" arrival="238.00" arrivalLane="51i_0" arrivalPos="10.00" arrivalSpeed="11.56" duration="145.00" routeLength="1015.10" waitSteps="43" timeLoss="69.03" rerouteNo="0" devices="tripinfo_left_30" vType="typeWE" speedFactor="1.00" vaporized=""/>
    <tripinfo id="right_33" depart="104.00" departLane="51o_0" departPos="5.10" departSpeed="0.00" departDelay="0.00" arrival="239.00" arrivalLane="52i_0" arrivalPos="10.00" arrivalSpeed="11.89" duration="135.00" routeLength="1015.10" waitSteps="33" timeLoss="58.53" rerouteNo="0" devices="tripinfo_right_33" vType="typeWE" speedFactor="1.00" vaporized=""/>
    <tripinfo id="left_36" depart="119.00" departLane="52o_0" departPos="5.10" departSpeed="0.00" departDelay="1.00" arrival="240.00" arrivalLane="51i_0" arrivalPos="10.00" arrivalSpeed="11.30" duration="121.00" routeLength="1015.10" waitSteps="19" timeLoss="44.88" rerouteNo="0" devices="tripinfo_left_36" vType="typeWE" speedFactor="1.00" vaporized=""/>
    <tripinfo id="right_41" depart="129.00" departLane="51o_0" departPos="5.10" departSpeed="0.00" departDelay="0.00" arrival="241.00" arrivalLane="52i_0" arrivalPos="10.00" arrivalSpeed="11.26" duration="112.00" routeLength="1015.10" waitSteps="9" timeLoss="35.51" rerouteNo="0" devices="tripinfo_right_41" vType="typeWE" speedFactor="1.00" vaporized=""/>
    <tripinfo id="right_43" depart="135.00" departLane="51o_0" departPos="5.10" departSpeed="0.00" departDelay="0.00" arrival="242.00" arrivalLane="52i_0" arrivalPos="10.00" arrivalSpeed="11.75" duration="107.00" routeLength="1015.10" waitSteps="3" timeLoss="31.27" rerouteNo="0" devices="tripinfo_right_43" vType="typeWE" speedFactor="1.00" vaporized=""/>
    <tripinfo id="left_38" depart="125.00" departLane="52o_0" departPos="5.10" departSpeed="0.00" departDelay="5.00" arrival="242.00" arrivalLane="51i_0" arrivalPos="10.00" arrivalSpeed="11.57" duration="117.00" routeLength="1015.10" waitSteps="15" timeLoss="40.66" rerouteNo="0" devices="tripinfo_left_38" vType="typeWE" speedFactor="1.00" vaporized=""/>
    <tripinfo id="left_48" depart="141.00" departLane="52o_0" departPos="5.10" departSpeed="0.00" departDelay="0.00" arrival="244.00" arrivalLane="51i_0" arrivalPos="10.00" arrivalSpeed="11.47" duration="103.00" routeLength="1015.10" waitSteps="0" timeLoss="26.44" rerouteNo="0" devices="tripinfo_left_48" vType="typeWE" speedFactor="1.00" vaporized=""/>
    <tripinfo id="right_44" depart="140.00" departLane="51o_0" departPos="5.10" departSpeed="0.00" departDelay="1.00" arrival="245.00" arrivalLane="52i_0" arrivalPos="10.00" arrivalSpeed="11.39" duration="105.00" routeLength="1015.10" waitSteps="0" timeLoss="28.50" rerouteNo="0" devices="tripinfo_right_44" vType="typeWE" speedFactor="1.00" vaporized=""/>
    <tripinfo id="left_50" depart="146.00" departLane="52o_0" departPos="5.10" departSpeed="0.00" departDelay="0.00" arrival="246.00" arrivalLane="51i_0" arrivalPos="10.00" arrivalSpeed="11.66" duration="100.00" routeLength="1015.10" waitSteps="0" timeLoss="23.59" rerouteNo="0" devices="tripinfo_left_50" vType="typeWE" speedFactor="1.00" vaporized=""/>
    <tripinfo id="right_46" depart="145.00" departLane="51o_0" departPos="5.10" departSpeed="0.00" departDelay="5.00" arrival="247.00" arrivalLane="52i_0" arrivalPos="10.00" arrivalSpeed="11.29" duration="102.00" routeLength="1015.10" waitSteps="0" timeLoss="25.54" rerouteNo="0" devices="tripinfo_right_46" vType="typeWE" speedFactor="1.00" vaporized=""/>
    <tripinfo id="right_49" depart="150.00" departLane="51o_0" departPos="5.10" departSpeed="0.00" departDelay="8.00" arrival="249.00" arrivalLane="52i_0" arrivalPos="10.00" arrivalSpeed="11.55" duration="99.00" routeLength="1015.10" waitSteps="0" timeLoss="22.79" rerouteNo="0" devices="tripinfo_right_49" vType="typeWE" speedFactor="1.00" vaporized=""/>
    <tripinfo id="left_52" depart="160.00" departLane="52o_0" departPos="5.10" departSpeed="0.00" departDelay="0.00" arrival="251.00" arrivalLane="51i_0" arrivalPos="10.00" arrivalSpeed="11.62" duration="91.00" routeLength="1015.10" waitSteps="0" timeLoss="15.05" rerouteNo="0" devices="tripinfo_left_52" vType="typeWE" speedFactor="1.00" vaporized=""/>
    <tripinfo id="left_54" depart="168.00" departLane="52o_0" departPos="5.10" departSpeed="0.00" departDelay="0.00" arrival="259.00" arrivalLane="51i_0" arrivalPos="10.00" arrivalSpeed="11.73" duration="91.00" routeLength="1015.10" waitSteps="0" timeLoss="14.94" rerouteNo="0" devices="tripinfo_left_54" vType="typeWE" speedFactor="1.00" vaporized=""/>
    <tripinfo id="left_56" depart="173.00" departLane="52o_0" departPos="5.10" departSpeed="0.00" departDelay="2.00" arrival="264.00" arrivalLane="51i_0" arrivalPos="10.00" arrivalSpeed="11.57" duration="91.00" routeLength="1015.10" waitSteps="0" timeLoss="14.69" rerouteNo="0" devices="tripinfo_left_56" vType="typeWE" speedFactor="1.00" vaporized=""/>
    <tripinfo id="left_57" depart="178.00" departLane="52o_0" departPos="5.10" departSpeed="0.00" departDelay="6.00" arrival="269.00" arrivalLane="51i_0" arrivalPos="10.00" arrivalSpeed="11.52" duration="91.00" routeLength="1015.10" waitSteps="0" timeLoss="14.88" rerouteNo="0" devices="tripinfo_left_57" vType="typeWE" speedFactor="1.00" vaporized=""/>
    <tripinfo id="left_59" depart="183.00" departLane="52o_0" departPos="5.10" departSpeed="0.00" departDelay="1.00" arrival="274.00" arrivalLane="51i_0" arrivalPos="10.00" arrivalSpeed="11.63" duration="91.00" routeLength="1015.10" waitSteps="0" timeLoss="14.81" rerouteNo="0" devices="tripinfo_left_59" vType="typeWE" speedFactor="1.00" vaporized=""/>
    <tripinfo id="left_61" depart="188.00" departLane="52o_0" departPos="5.10" departSpeed="0.00" departDelay="5.00" arrival="278.00" arrivalLane="51i_0" arrivalPos="10.00" arrivalSpeed="11.56" duration="90.00" routeLength="1015.10" waitSteps="0" timeLoss="14.02" rerouteNo="0" devices="tripinfo_left_61" vType="typeWE" speedFactor="1.00" vaporized=""/>
    <tripinfo id="left_62" depart="193.00" departLane="52o_0" departPos="5.10" departSpeed="0.00" departDelay="9.00" arrival="283.00" arrivalLane="51i_0" arrivalPos="10.00" arrivalSpeed="11.02" duration="90.00" routeLength="1015.10" waitSteps="0" timeLoss="13.81" rerouteNo="0" devices="tripinfo_left_62" vType="typeWE" speedFactor="1.00" vaporized=""/>
    <tripinfo id="right_65" depart="195.00" departLane="51o_0" departPos="5.10" departSpeed="0.00" departDelay="0.00" arrival="287.00" arrivalLane="52i_0" arrivalPos="10.00" arrivalSpeed="11.51" duration="92.00" routeLength="1015.10" waitSteps="0" timeLoss="15.30" rerouteNo="0" devices="tripinfo_right_65" vType="typeWE" speedFactor="1.00" vaporized=""/>
    <tripinfo id="up_51" depart="157.00" departLane="53o_0" departPos="5.10" departSpeed="0.00" departDelay="0.00" arrival="296.00" arrivalLane="54i_0" arrivalPos="10.00" arrivalSpeed="10.77" duration="139.00" routeLength="1015.10" waitSteps="38" timeLoss="63.04" rerouteNo="0" devices="tripinfo_up_51" vType="typeNS" speedFactor="1.00" vaporized=""/>
    <tripinfo id="down_45" depart="139.00" departLane="54o_0" departPos="5.10" departSpeed="0.00" departDelay="0.00" arrival="296.00" arrivalLane="53i_0" arrivalPos="10.00" arrivalSpeed="11.80" duration="157.00" routeLength="1015.10" waitSteps="55" timeLoss="81.08" rerouteNo="0" devices="tripinfo_down_45" vType="typeNS" speedFactor="1.00" vaporized=""/>
    <tripinfo id="up_55" depart="168.00" departLane="53o_0" departPos="5.10" departSpeed="0.00" departDelay="0.00" arrival="298.00" arrivalLane="54i_0" arrivalPos="10.00" arrivalSpeed="11.36" duration="130.00" routeLength="1015.10" waitSteps="27" timeLoss="54.23" rerouteNo="0" devices="tripinfo_up_55" vType="typeNS" speedFactor="1.00" vaporized=""/>
    <tripinfo id="down_47" depart="144.00" departLane="54o_0" departPos="5.10" departSpeed="0.00" departDelay="4.00" arrival="299.00" arrivalLane="53i_0" arrivalPos="10.00" arrivalSpeed="11.65" duration="155.00" routeLength="1015.10" waitSteps="52" timeLoss="78.41" rerouteNo="0" devices="tripinfo_down_47" vType="typeNS" speedFactor="1.00" vaporized=""/>
    <tripinfo id="down_53" depart="160.00" departLane="54o_0" departPos="5.10" departSpeed="0.00" departDelay="0.00" arrival="300.00" arrivalLane="53i_0" arrivalPos="10.00" arrivalSpeed="11.69" duration="140.00" routeLength="1015.10" waitSteps="37" timeLoss="64.10" rerouteNo="0" devices="tripinfo_down_53" vType="typeNS" speedFactor="1.00" vaporized=""/>
    <tripinfo id="up_63" depart="185.00" departLane="53o_0" departPos="5.10" departSpeed="0.00" departDelay="1.00" arrival="300.00" arrivalLane="54i_0" arrivalPos="10.00" arrivalSpeed="11.55" duration="115.00" routeLength="1015.10" waitSteps="12" timeLoss="39.18" rerouteNo="0" devices="tripinfo_up_63" vType="typeNS" speedFactor="1.00" vaporized=""/>
    <tripinfo id="up_64" depart="192.00" departLane="53o_0" departPos="5.10" departSpeed="0.00" departDelay="0.00" arrival="302.00" arrivalLane="54i_0" arrivalPos="10.00" arrivalSpeed="11.42" duration="110.00" routeLength="1015.10" waitSteps="6" timeLoss="33.96" rerouteNo="0" devices="tripinfo_up_64" vType="typeNS" speedFactor="1.00" vaporized=""/>
    <tripinfo id="down_58" depart="182.00" departLane="54o_0" departPos="5.10" departSpeed="0.00" departDelay="5.00" arrival="303.00" arrivalLane="53i_0" arrivalPos="10.00" arrivalSpeed="11.46" duration="121.00" routeLength="1015.10" waitSteps="17" timeLoss="44.56" rerouteNo="0" devices="tripinfo_down_58" vType="typeNS" speedFactor="1.00" vaporized=""/>
    <tripinfo id="up_66" depart="201.00" departLane="53o_0" departPos="5.10" departSpeed="0.00" departDelay="0.00" arrival="304.00" arrivalLane="54i_0" arrivalPos="10.00" arrivalSpeed="11.41" duration="103.00" routeLength="1015.10" waitSteps="0" timeLoss="26.77" rerouteNo="0" devices="tripinfo_up_66" vType="typeNS" speedFactor="1.00" vaporized=""/>
    <tripinfo id="down_60" depart="187.00" departLane="54o_0" departPos="5.10" departSpeed="0.00" departDelay="5.00" arrival="305.00" arrivalLane="53i_0" arrivalPos="10.00" arrivalSpeed="11.48" duration="118.00" routeLength="1015.10" waitSteps="13" timeLoss="41.99" rerouteNo="0" devices="tripinfo_down_60" vType="typeNS" speedFactor="1.00" vaporized=""/>
    <tripinfo id="up_68" depart="208.00" departLane="53o_0" departPos="5.10" departSpeed="0.00" departDelay="0.00" arrival="306.00" arrivalLane="54i_0" arrivalPos="10.00" arrivalSpeed="11.62" duration="98.00" routeLength="1015.10" waitSteps="0" timeLoss="21.50" rerouteNo="0" devices="tripinfo_up_68" vType="typeNS" speedFactor="1.00" vaporized=""/>
    <tripinfo id="down_69" depart="211.00" departLane="54o_0" departPos="5.10" departSpeed="0.00" departDelay="2.00" arrival="307.00" arrivalLane="53i_0" arrivalPos="10.00" arrivalSpeed="11.53" duration="96.00" routeLength="1015.10" waitSteps="0" timeLoss="19.74" rerouteNo="0" devices="tripinfo_down_69" vType="typeNS" speedFactor="1.00" vaporized=""/>
    <tripinfo id="up_74" depart="221.00" departLane="53o_0" departPos="5.10" departSpeed="0.00" departDelay="0.00" arrival="313.00" arrivalLane="54i_0" arrivalPos="10.00" arrivalSpeed="11.71" duration="92.00" routeLength="1015.10" waitSteps="0" timeLoss="15.64" rerouteNo="0" devices="tripinfo_up_74" vType="typeNS" speedFactor="1.00" vaporized=""/>
    <tripinfo id="down_75" depart="227.00" departLane="54o_0" departPos="5.10" departSpeed="0.00" departDelay="0.00" arrival="318.00" arrivalLane="53i_0" arrivalPos="10.00" arrivalSpeed="11.82" duration="91.00" routeLength="1015.10" waitSteps="0" timeLoss="14.74" rerouteNo="0" devices="tripinfo_down_75" vType="typeNS" speedFactor="1.00" vaporized=""/>
    <tripinfo id="up_76" depart="230.00" departLane="53o_0" departPos="5.10" departSpeed="0.00" departDelay="0.00" arrival="321.00" arrivalLane="54i_0" arrivalPos="10.00" arrivalSpeed="10.76" duration="91.00" routeLength="1015.10" waitSteps="0" timeLoss="14.81" rerouteNo="0" devices="tripinfo_up_76" vType="typeNS" speedFactor="1.00" vaporized=""/>
    <tripinfo id="up_80" depart="245.00" departLane="53o_0" departPos="5.10" departSpeed="0.00" departDelay="0.00" arrival="337.00" arrivalLane="54i_0" arrivalPos="10.00" arrivalSpeed="11.61" duration="92.00" routeLength="1015.10" waitSteps="0" timeLoss="15.30" rerouteNo="0" devices="tripinfo_up_80" vType="typeNS" speedFactor="1.00" vaporized=""/>
    <tripinfo id="down_83" depart="255.00" departLane="54o_0" departPos="5.10" departSpeed="0.00" departDelay="0.00" arrival="346.00" arrivalLane="53i_0" arrivalPos="10.00" arrivalSpeed="11.33" duration="91.00" routeLength="1015.10" waitSteps="0" timeLoss="14.42" rerouteNo="0" devices="tripinfo_down_83" vType="typeNS" speedFactor="1.00" vaporized=""/>
    <tripinfo id="left_70" depart="213.00" departLane="52o_0" departPos="5.10" departSpeed="0.00" departDelay="0.00" arrival="356.00" arrivalLane="51i_0" arrivalPos="10.00" arrivalSpeed="11.57" duration="143.00" routeLength="1015.10" waitSteps="41" timeLoss="66.68" rerouteNo="0" devices="tripinfo_left_70" vType="typeWE" speedFactor="1.00" vaporized=""/>
    <tripinfo id="right_67" depart="208.00" departLane="51o_0" departPos="5.10" departSpeed="0.00" departDelay="0.00" arrival="357.00" arrivalLane="52i_0" arrivalPos="10.00" arrivalSpeed="11.76" duration="149.00" routeLength="1015.10" waitSteps="46" timeLoss="72.50" rerouteNo="0" devices="tripinfo_right_67" vType="typeWE" speedFactor="1.00" vaporized=""/>
    <tripinfo id="right_71" depart="217.00" departLane="51o_0" departPos="5.10" departSpeed="0.00" departDelay="0.00" arrival="359.00" arrivalLane="52i_0" arrivalPos="10.00" arrivalSpeed="11.71" duration="142.00" routeLength="1015.10" waitSteps="38" timeLoss="65.44" rerouteNo="0" devices="tripinfo_right_71" vType="typeWE" speedFactor="1.00" vaporized=""/>
    <tripinfo id="left_72" depart="218.00" departLane="52o_0" departPos="5.10" departSpeed="0.00" departDelay="0.00" arrival="359.00" arrivalLane="51i_0" arrivalPos="10.00" arrivalSpeed="11.28" duration="141.00" routeLength="1015.10" waitSteps="38" timeLoss="64.45" rerouteNo="0" devices="tripinfo_left_72" vType="typeWE" speedFactor="1.00" vaporized=""/>
    <tripinfo id="right_73" depart="222.00" departLane="51o_0" departPos="5.10" departSpeed="0.00" departDelay="2.00" arrival="361.00" arrivalLane="52i_0" arrivalPos="10.00" arrivalSpeed="11.33" duration="139.00" routeLength="1015.10" waitSteps="34" timeLoss="63.12" rerouteNo="0" devices="tripinfo_right_73" vType="typeWE" speedFactor="1.00" vaporized=""/>
    <tripinfo id="left_82" depart="255.00" departLane="52o_0" departPos="5.10" departSpeed="0.00" departDelay="0.00" arrival="361.00" arrivalLane="51i_0" arrivalPos="10.00" arrivalSpeed="11.14" duration="106.00" routeLength="1015.10" waitSteps="2" timeLoss="29.75" rerouteNo="0" devices="tripinfo_left_82" vType="typeWE" speedFactor="1.00" vaporized=""/>
    <tripinfo id="right_77" depart="231.00" departLane="51o_0" departPos="5.10" departSpeed="0.00" departDelay="0.00" arrival="363.00" arrivalLane="52i_0" arrivalPos="10.00" arrivalSpeed="11.53" duration="132.00" routeLength="1015.10" waitSteps="27" timeLoss="55.99" rerouteNo="0" devices="tripinfo_right_77" vType="typeWE" speedFactor="1.00" vaporized=""/>