<?xml version="1.0" encoding="UTF-8"?>

<!-- generated on Mon Apr 30 16:35:42 2018 by SUMO Version 0.32.0
<?xml version="1.0" encoding="UTF-8"?>

<configuration xmlns:xsi="http://www.w3.org/2001/XMLSchema-instance" xsi:noNamespaceSchemaLocation="http://sumo.dlr.de/xsd/sumoConfiguration.xsd">

    <input>
        <net-file value="data/cross.net.xml"/>
        <route-files value="data/cross.rou.xml"/>
        <additional-files value="data/cross.det.xml"/>
    </input>

    <output>
        <summary-output value="data/cross.out"/>
        <tripinfo-output value="output/tripinfo29.xml"/>
    </output>

    <time>
        <begin value="0"/>
    </time>

    <report>
        <verbose value="true"/>
        <duration-log.statistics value="true"/>
        <no-step-log value="true"/>
    </report>

    <traci_server>
        <remote-port value="51857"/>
    </traci_server>

</configuration>
-->

<tripinfos xmlns:xsi="http://www.w3.org/2001/XMLSchema-instance" xsi:noNamespaceSchemaLocation="http://sumo.dlr.de/xsd/tripinfo_file.xsd">
    <tripinfo id="up_1" depart="3.00" departLane="53o_0" departPos="5.10" departSpeed="0.00" departDelay="0.00" arrival="94.00" arrivalLane="54i_0" arrivalPos="10.00" arrivalSpeed="11.38" duration="91.00" routeLength="1015.10" waitSteps="0" timeLoss="14.36" rerouteNo="0" devices="tripinfo_up_1" vType="typeNS" speedFactor="1.00" vaporized=""/>
    <tripinfo id="up_2" depart="8.00" departLane="53o_0" departPos="5.10" departSpeed="0.00" departDelay="4.00" arrival="98.00" arrivalLane="54i_0" arrivalPos="10.00" arrivalSpeed="11.35" duration="90.00" routeLength="1015.10" waitSteps="0" timeLoss="14.04" rerouteNo="0" devices="tripinfo_up_2" vType="typeNS" speedFactor="1.00" vaporized=""/>
    <tripinfo id="down_4" depart="8.00" departLane="54o_0" departPos="5.10" departSpeed="0.00" departDelay="0.00" arrival="99.00" arrivalLane="53i_0" arrivalPos="10.00" arrivalSpeed="11.25" duration="91.00" routeLength="1015.10" waitSteps="0" timeLoss="14.85" rerouteNo="0" devices="tripinfo_down_4" vType="typeNS" speedFactor="1.00" vaporized=""/>
    <tripinfo id="up_6" depart="15.00" departLane="53o_0" departPos="5.10" departSpeed="0.00" departDelay="0.00" arrival="107.00" arrivalLane="54i_0" arrivalPos="10.00" arrivalSpeed="11.42" duration="92.00" routeLength="1015.10" waitSteps="0" timeLoss="15.37" rerouteNo="0" devices="tripinfo_up_6" vType="typeNS" speedFactor="1.00" vaporized=""/>
    <tripinfo id="right_7" depart="16.00" departLane="51o_0" departPos="5.10" departSpeed="0.00" departDelay="0.00" arrival="108.00" arrivalLane="52i_0" arrivalPos="10.00" arrivalSpeed="11.30" duration="92.00" routeLength="1015.10" waitSteps="0" timeLoss="16.10" rerouteNo="0" devices="tripinfo_right_7" vType="typeWE" speedFactor="1.00" vaporized=""/>
    <tripinfo id="right_8" depart="21.00" departLane="51o_0" departPos="5.10" departSpeed="0.00" departDelay="4.00" arrival="112.00" arrivalLane="52i_0" arrivalPos="10.00" arrivalSpeed="11.46" duration="91.00" routeLength="1015.10" waitSteps="0" timeLoss="15.03" rerouteNo="0" devices="tripinfo_right_8" vType="typeWE" speedFactor="1.00" vaporized=""/>
    <tripinfo id="left_0" depart="2.00" departLane="52o_0" departPos="5.10" departSpeed="0.00" departDelay="0.00" arrival="116.00" arrivalLane="51i_0" arrivalPos="10.00" arrivalSpeed="11.42" duration="114.00" routeLength="1015.10" waitSteps="13" timeLoss="37.82" rerouteNo="0" devices="tripinfo_left_0" vType="typeWE" speedFactor="1.00" vaporized=""/>
    <tripinfo id="right_9" depart="26.00" departLane="51o_0" departPos="5.10" departSpeed="0.00" departDelay="7.00" arrival="118.00" arrivalLane="52i_0" arrivalPos="10.00" arrivalSpeed="11.79" duration="92.00" routeLength="1015.10" waitSteps="0" timeLoss="15.17" rerouteNo="0" devices="tripinfo_right_9" vType="typeWE" speedFactor="1.00" vaporized=""/>
    <tripinfo id="left_3" depart="7.00" departLane="52o_0" departPos="5.10" departSpeed="0.00" departDelay="2.00" arrival="119.00" arrivalLane="51i_0" arrivalPos="10.00" arrivalSpeed="11.20" duration="112.00" routeLength="1015.10" waitSteps="9" timeLoss="35.52" rerouteNo="0" devices="tripinfo_left_3" vType="typeWE" speedFactor="1.00" vaporized=""/>
    <tripinfo id="left_5" depart="14.00" departLane="52o_0" departPos="5.10" departSpeed="0.00" departDelay="0.00" arrival="121.00" arrivalLane="51i_0" arrivalPos="10.00" arrivalSpeed="11.43" duration="107.00" routeLength="1015.10" waitSteps="3" timeLoss="30.91" rerouteNo="0" devices="tripinfo_left_5" vType="typeWE" speedFactor="1.00" vaporized=""/>
    <tripinfo id="right_11" depart="31.00" departLane="51o_0" departPos="5.10" departSpeed="0.00" departDelay="3.00" arrival="122.00" arrivalLane="52i_0" arrivalPos="10.00" arrivalSpeed="11.73" duration="91.00" routeLength="1015.10" waitSteps="0" timeLoss="14.85" rerouteNo="0" devices="tripinfo_right_11" vType="typeWE" speedFactor="1.00" vaporized=""/>
    <tripinfo id="left_10" depart="21.00" departLane="52o_0" departPos="5.10" departSpeed="0.00" departDelay="0.00" arrival="123.00" arrivalLane="51i_0" arrivalPos="10.00" arrivalSpeed="11.61" duration="102.00" routeLength="1015.10" waitSteps="0" timeLoss="25.58" rerouteNo="0" devices="tripinfo_left_10" vType="typeWE" speedFactor="1.00" vaporized=""/>
    <tripinfo id="left_13" depart="37.00" departLane="52o_0" departPos="5.10" departSpeed="0.00" departDelay="0.00" arrival="129.00" arrivalLane="51i_0" arrivalPos="10.00" arrivalSpeed="11.24" duration="92.00" routeLength="1015.10" waitSteps="0" timeLoss="16.02" rerouteNo="0" devices="tripinfo_left_13" vType="typeWE" speedFactor="1.00" vaporized=""/>
    <tripinfo id="left_17" depart="45.00" departLane="52o_0" departPos="5.10" departSpeed="0.00" departDelay="0.00" arrival="137.00" arrivalLane="51i_0" arrivalPos="10.00" arrivalSpeed="11.59" duration="92.00" routeLength="1015.10" waitSteps="0" timeLoss="15.71" rerouteNo="0" devices="tripinfo_left_17" vType="typeWE" speedFactor="1.00" vaporized=""/>
    <tripinfo id="left_19" depart="52.00" departLane="52o_0" departPos="5.10" departSpeed="0.00" departDelay="0.00" arrival="144.00" arrivalLane="51i_0" arrivalPos="10.00" arrivalSpeed="11.58" duration="92.00" routeLength="1015.10" waitSteps="0" timeLoss="15.87" rerouteNo="0" devices="tripinfo_left_19" vType="typeWE" speedFactor="1.00" vaporized=""/>
    <tripinfo id="right_21" depart="57.00" departLane="51o_0" departPos="5.10" departSpeed="0.00" departDelay="0.00" arrival="148.00" arrivalLane="52i_0" arrivalPos="10.00" arrivalSpeed="11.70" duration="91.00" routeLength="1015.10" waitSteps="0" timeLoss="14.78" rerouteNo="0" devices="tripinfo_right_21" vType="typeWE" speedFactor="1.00" vaporized=""/>
    <tripinfo id="left_20" depart="57.00" departLane="52o_0" departPos="5.10" departSpeed="0.00" departDelay="4.00" arrival="148.00" arrivalLane="51i_0" arrivalPos="10.00" arrivalSpeed="11.52" duration="91.00" routeLength="1015.10" waitSteps="0" timeLoss="14.84" rerouteNo="0" devices="tripinfo_left_20" vType="typeWE" speedFactor="1.00" vaporized=""/>
    <tripinfo id="right_22" depart="62.00" departLane="51o_0" departPos="5.10" departSpeed="0.00" departDelay="4.00" arrival="153.00" arrivalLane="52i_0" arrivalPos="10.00" arrivalSpeed="11.39" duration="91.00" routeLength="1015.10" waitSteps="0" timeLoss="14.80" rerouteNo="0" devices="tripinfo_right_22" vType="typeWE" speedFactor="1.00" vaporized=""/>
    <tripinfo id="left_23" depart="62.00" departLane="52o_0" departPos="5.10" departSpeed="0.00" departDelay="4.00" arrival="154.00" arrivalLane="51i_0" arrivalPos="10.00" arrivalSpeed="11.46" duration="92.00" routeLength="1015.10" waitSteps="0" timeLoss="15.72" rerouteNo="0" devices="tripinfo_left_23" vType="typeWE" speedFactor="1.00" vaporized=""/>
    <tripinfo id="left_27" depart="71.00" departLane="52o_0" departPos="5.10" departSpeed="0.00" departDelay="0.00" arrival="162.00" arrivalLane="51i_0" arrivalPos="10.00" arrivalSpeed="11.32" duration="91.00" routeLength="1015.10" waitSteps="0" timeLoss="14.97" rerouteNo="0" devices="tripinfo_left_27" vType="typeWE" speedFactor="1.00" vaporized=""/>
    <tripinfo id="up_12" depart="28.00" departLane="53o_0" departPos="5.10" departSpeed="0.00" departDelay="0.00" arrival="176.00" arrivalLane="54i_0" arrivalPos="10.00" arrivalSpeed="11.60" duration="148.00" routeLength="1015.10" waitSteps="47" timeLoss="72.06" rerouteNo="0" devices="tripinfo_up_12" vType="typeNS" speedFactor="1.00" vaporized=""/>
    <tripinfo id="down_14" depart="37.00" departLane="54o_0" departPos="5.10" departSpeed="0.00" departDelay="0.00" arrival="176.00" arrivalLane="53i_0" arrivalPos="10.00" arrivalSpeed="11.59" duration="139.00" routeLength="1015.10" waitSteps="35" timeLoss="62.47" rerouteNo="0" devices="tripinfo_down_14" vType="typeNS" speedFactor="1.00" vaporized=""/>
    <tripinfo id="down_16" depart="44.00" departLane="54o_0" departPos="5.10" departSpeed="0.00" departDelay="0.00" arrival="178.00" arrivalLane="53i_0" arrivalPos="10.00" arrivalSpeed="10.78" duration="134.00" routeLength="1015.10" waitSteps="32" timeLoss="58.00" rerouteNo="0" devices="tripinfo_down_16" vType="typeNS" speedFactor="1.00" vaporized=""/>
    <tripinfo id="up_15" depart="42.00" departLane="53o_0" departPos="5.10" departSpeed="0.00" departDelay="0.00" arrival="179.00" arrivalLane="54i_0" arrivalPos="10.00" arrivalSpeed="11.32" duration="137.00" routeLength="1015.10" waitSteps="34" timeLoss="60.80" rerouteNo="0" devices="tripinfo_up_15" vType="typeNS" speedFactor="1.00" vaporized=""/>
    <tripinfo id="down_24" depart="61.00" departLane="54o_0" departPos="5.10" departSpeed="0.00" departDelay="0.00" arrival="180.00" arrivalLane="53i_0" arrivalPos="10.00" arrivalSpeed="10.80" duration="119.00" routeLength="1015.10" waitSteps="16" timeLoss="43.01" rerouteNo="0" devices="tripinfo_down_24" vType="typeNS" speedFactor="1.00" vaporized=""/>
    <tripinfo id="up_18" depart="47.00" departLane="53o_0" departPos="5.10" departSpeed="0.00" departDelay="2.00" arrival="181.00" arrivalLane="54i_0" arrivalPos="10.00" arrivalSpeed="11.37" duration="134.00" routeLength="1015.10" waitSteps="30" timeLoss="57.55" rerouteNo="0" devices="tripinfo_up_18" vType="typeNS" speedFactor="1.00" vaporized=""/>
    <tripinfo id="down_32" depart="88.00" departLane="54o_0" departPos="5.10" departSpeed="0.00" departDelay="0.00" arrival="182.00" arrivalLane="53i_0" arrivalPos="10.00" arrivalSpeed="11.41" duration="94.00" routeLength="1015.10" waitSteps="0" timeLoss="18.09" rerouteNo="0" devices="tripinfo_down_32" vType="typeNS" speedFactor="1.00" vaporized=""/>
    <tripinfo id="up_25" depart="61.00" departLane="53o_0" departPos="5.10" departSpeed="0.00" departDelay="0.00" arrival="183.00" arrivalLane="54i_0" arrivalPos="10.00" arrivalSpeed="11.53" duration="122.00" routeLength="1015.10" waitSteps="18" timeLoss="46.05" rerouteNo="0" devices="tripinfo_up_25" vType="typeNS" speedFactor="1.00" vaporized=""/>
    <tripinfo id="up_26" depart="66.00" departLane="53o_0" departPos="5.10" departSpeed="0.00" departDelay="3.00" arrival="185.00" arrivalLane="54i_0" arrivalPos="10.00" arrivalSpeed="11.04" duration="119.00" routeLength="1015.10" waitSteps="12" timeLoss="42.98" rerouteNo="0" devices="tripinfo_up_26" vType="typeNS" speedFactor="1.00" vaporized=""/>
    <tripinfo id="up_33" depart="90.00" departLane="53o_0" departPos="5.10" departSpeed="0.00" departDelay="0.00" arrival="188.00" arrivalLane="54i_0" arrivalPos="10.00" arrivalSpeed="11.56" duration="98.00" routeLength="1015.10" waitSteps="0" timeLoss="21.57" rerouteNo="0" devices="tripinfo_up_33" vType="typeNS" speedFactor="1.00" vaporized=""/>
    <tripinfo id="up_36" depart="99.00" departLane="53o_0" departPos="5.10" departSpeed="0.00" departDelay="2.00" arrival="191.00" arrivalLane="54i_0" arrivalPos="10.00" arrivalSpeed="11.13" duration="92.00" routeLength="1015.10" waitSteps="0" timeLoss="15.54" rerouteNo="0" devices="tripinfo_up_36" vType="typeNS" speedFactor="1.00" vaporized=""/>
    <tripinfo id="down_39" depart="107.00" departLane="54o_0" departPos="5.10" departSpeed="0.00" departDelay="0.00" arrival="198.00" arrivalLane="53i_0" arrivalPos="10.00" arrivalSpeed="11.02" duration="91.00" routeLength="1015.10" waitSteps="0" timeLoss="14.80" rerouteNo="0" devices="tripinfo_down_39" vType="typeNS" speedFactor="1.00" vaporized=""/>
    <tripinfo id="down_46" depart="120.00" departLane="54o_0" departPos="5.10" departSpeed="0.00" departDelay="0.00" arrival="211.00" arrivalLane="53i_0" arrivalPos="10.00" arrivalSpeed="11.30" duration="91.00" routeLength="1015.10" waitSteps="0" timeLoss="14.29" rerouteNo="0" devices="tripinfo_down_46" vType="typeNS" speedFactor="1.00" vaporized=""/>
    <tripinfo id="right_28" depart="77.00" departLane="51o_0" departPos="5.10" departSpeed="0.00" departDelay="0.00" arrival="235.00" arrivalLane="52i_0" arrivalPos="10.00" arrivalSpeed="11.63" duration="158.00" routeLength="1015.10" waitSteps="60" timeLoss="81.60" rerouteNo="0" devices="tripinfo_right_28" vType="typeWE" speedFactor="1.00" vaporized=""/>
    <tripinfo id="left_30" depart="82.00" departLane="52o_0" departPos="5.10" departSpeed="0.00" departDelay="0.00" arrival="237.00" arrivalLane="51i_0" arrivalPos="10.00" arrivalSpeed="11.33" duration="155.00" routeLength="1015.10" waitSteps="51" timeLoss="78.46" rerouteNo="0" devices="tripinfo_left_30" vType="typeWE" speedFactor="1.00" vaporized=""/>
    <tripinfo id="right_29" depart="82.00" departLane="51o_0" departPos="5.10" departSpeed="0.00" departDelay="0.00" arrival="238.00" arrivalLane="52i_0" arrivalPos="10.00" arrivalSpeed="11.53" duration="156.00" routeLength="1015.10" waitSteps="54" timeLoss="80.07" rerouteNo="0" devices="tripinfo_right_29" vType="typeWE" speedFactor="1.00" vaporized=""/>
    <tripinfo id="left_31" depart="87.00" departLane="52o_0" departPos="5.10" departSpeed="0.00" departDelay="3.00" arrival="238.00" arrivalLane="51i_0" arrivalPos="10.00" arrivalSpeed="11.47" duration="151.00" routeLength="1015.10" waitSteps="49" timeLoss="75.24" rerouteNo="0" devices="tripinfo_left_31" vType="typeWE" speedFactor="1.00" vaporized=""/>
    <tripinfo id="right_34" depart="91.00" departLane="51o_0" departPos="5.10" departSpeed="0.00" departDelay="0.00" arrival="241.00" arrivalLane="52i_0" arrivalPos="10.00" arrivalSpeed="11.74" duration="150.00" routeLength="1015.10" waitSteps="48" timeLoss="73.55" rerouteNo="0" devices="tripinfo_right_34" vType="typeWE" speedFactor="1.00" vaporized=""/>
    <tripinfo id="left_37" depart="100.00" departLane="52o_0" departPos="5.10" departSpeed="0.00" departDelay="0.00" arrival="241.00" arrivalLane="51i_0" arrivalPos="10.00" arrivalSpeed="11.57" duration="141.00" routeLength="1015.10" waitSteps="38" timeLoss="64.51" rerouteNo="0" devices="tripinfo_left_37" vType="typeWE" speedFactor="1.00" vaporized=""/>
    <tripinfo id="right_35" depart="96.00" departLane="51o_0" departPos="5.10" departSpeed="0.00" departDelay="0.00" arrival="243.00" arrivalLane="52i_0" arrivalPos="10.00" arrivalSpeed="11.52" duration="147.00" routeLength="1015.10" waitSteps="43" timeLoss="70.33" rerouteNo="0" devices="tripinfo_right_35" vType="typeWE" speedFactor="1.00" vaporized=""/>
    <tripinfo id="left_38" depart="105.00" departLane="52o_0" departPos="5.10" departSpeed="0.00" departDelay="0.00" arrival="243.00" arrivalLane="51i_0" arrivalPos="10.00" arrivalSpeed="11.28" duration="138.00" routeLength="1015.10" waitSteps="33" timeLoss="61.53" rerouteNo="0" devices="tripinfo_left_38" vType="typeWE" speedFactor="1.00" vaporized=""/>
    <tripinfo id="right_41" depart="111.00" departLane="51o_0" departPos="5.10" departSpeed="0.00" departDelay="0.00" arrival="244.00" arrivalLane="52i_0" arrivalPos="10.00" arrivalSpeed="11.83" duration="133.00" routeLength="1015.10" waitSteps="29" timeLoss="57.12" rerouteNo="0" devices="tripinfo_right_41" vType="typeWE" speedFactor="1.00" vaporized=""/>
    <tripinfo id="left_40" depart="110.00" departLane="52o_0" departPos="5.10" departSpeed="0.00" departDelay="2.00" arrival="245.00" arrivalLane="51i_0" arrivalPos="10.00" arrivalSpeed="11.27" duration="135.00" routeLength="1015.10" waitSteps="31" timeLoss="58.89" rerouteNo="0" devices="tripinfo_left_40" vType="typeWE" speedFactor="1.00" vaporized=""/>
    <tripinfo id="right_42" depart="119.00" departLane="51o_0" departPos="5.10" departSpeed="0.00" departDelay="2.00" arrival="246.00" arrivalLane="52i_0" arrivalPos="10.00" arrivalSpeed="11.55" duration="127.00" routeLength="1015.10" waitSteps="22" timeLoss="50.86" rerouteNo="0" devices="tripinfo_right_42" vType="typeWE" speedFactor="1.00" vaporized=""/>
    <tripinfo id="left_43" depart="118.00" departLane="52o_0" departPos="5.10" departSpeed="0.00" departDelay="0.00" arrival="247.00" arrivalLane="51i_0" arrivalPos="10.00" arrivalSpeed="11.41" duration="129.00" routeLength="1015.10" waitSteps="25" timeLoss="52.99" rerouteNo="0" devices="tripinfo_left_43" vType="typeWE" speedFactor="1.00" vaporized=""/>
    <tripinfo id="right_44" depart="124.00" departLane="51o_0" departPos="5.10" departSpeed="0.00" departDelay="4.00" arrival="248.00" arrivalLane="52i_0" arrivalPos="10.00" arrivalSpeed="10.84" duration="124.00" routeLength="1015.10" waitSteps="19" timeLoss="48.00" rerouteNo="0" devices="tripinfo_right_44" vType="typeWE" speedFactor="1.00" vaporized=""/>
    <tripinfo id="left_45" depart="123.00" departLane="52o_0" departPos="5.10" departSpeed="0.00" departDelay="3.00" arrival="249.00" arrivalLane="51i_0" arrivalPos="10.00" arrivalSpeed="11.71" duration="126.00" routeLength="1015.10" waitSteps="19" timeLoss="49.85" rerouteNo="0" devices="tripinfo_left_45" vType="typeWE" speedFactor="1.00" vaporized=""/>
    <tripinfo id="right_47" depart="130.00" departLane="51o_0" departPos="5.10" departSpeed="0.00" departDelay="5.00" arrival="250.00" arrivalLane="52i_0" arrivalPos="10.00" arrivalSpeed="10.83" duration="120.00" routeLength="1015.10" waitSteps="16" timeLoss="44.00" rerouteNo="0" devices="tripinfo_right_47" vType="typeWE" speedFactor="1.00" vaporized=""/>
    <tripinfo id="left_48" depart="130.00" departLane="52o_0" departPos="5.10" departSpeed="0.00" departDelay="0.00" arrival="251.00" arrivalLane="51i_0" arrivalPos="10.00" arrivalSpeed="11.60" duration="121.00" routeLength="1015.10" waitSteps="15" timeLoss="44.63" rerouteNo="0" devices="tripinfo_left_48" vType="typeWE" speedFactor="1.00" vaporized=""/>
    <tripinfo id="right_52" depart="140.00" departLane="51o_0" departPos="5.10" departSpeed="0.00" departDelay="0.00" arrival="253.00" arrivalLane="52i_0" arrivalPos="10.00" arrivalSpeed="11.19" duration="113.00" routeLength="1015.10" waitSteps="6" timeLoss="36.34" rerouteNo="0" devices="tripinfo_right_52" vType="typeWE" speedFactor="1.00" vaporized=""/>
    <tripinfo id="left_49" depart="135.00" departLane="52o_0" departPos="5.10" departSpeed="0.00" departDelay="3.00" arrival="253.00" arrivalLane="51i_0" arrivalPos="10.00" arrivalSpeed="11.35" duration="118.00" routeLength="1015.10" waitSteps="11" timeLoss="41.40" rerouteNo="0" devices="tripinfo_left_49" vType="typeWE" speedFactor="1.00" vaporized=""/>
    <tripinfo id="right_53" depart="145.00" departLane="51o_0" departPos="5.10" departSpeed="0.00" departDelay="4.00" arrival="255.00" arrivalLane="52i_0" arrivalPos="10.00" arrivalSpeed="11.39" duration="110.00" routeLength="1015.10" waitSteps="3" timeLoss="33.43" rerouteNo="0" devices="tripinfo_right_53" vType="typeWE" speedFactor="1.00" vaporized=""/>
    <tripinfo id="left_57" depart="151.00" departLane="52o_0" departPos="5.10" departSpeed="0.00" departDelay="0.00" arrival="255.00" arrivalLane="51i_0" arrivalPos="10.00" arrivalSpeed="11.50" duration="104.00" routeLength="1015.10" waitSteps="0" timeLoss="27.39" rerouteNo="0" devices="tripinfo_left_57" vType="typeWE" speedFactor="1.00" vaporized=""/>
    <tripinfo id="right_62" depart="160.00" departLane="51o_0" departPos="5.10" departSpeed="0.00" departDelay="0.00" arrival="256.00" arrivalLane="52i_0" arrivalPos="10.00" arrivalSpeed="10.81" duration="96.00" routeLength="1015.10" waitSteps="0" timeLoss="19.95" rerouteNo="0" devices="tripinfo_right_62" vType="typeWE" speedFactor="1.00" vaporized=""/>
    <tripinfo id="right_64" depart="169.00" departLane="51o_0" departPos="5.10" departSpeed="0.00" departDelay="0.00" arrival="261.00" arrivalLane="52i_0" arrivalPos="10.00" arrivalSpeed="11.56" duration="92.00" routeLength="1015.10" waitSteps="0" timeLoss="15.89" rerouteNo="0" devices="tripinfo_right_64" vType="typeWE" speedFactor="1.00" vaporized=""/>
    <tripinfo id="left_65" depart="171.00" departLane="52o_0" departPos="5.10" departSpeed="0.00" departDelay="0.00" arrival="262.00" arrivalLane="51i_0" arrivalPos="10.00" arrivalSpeed="11.25" duration="91.00" routeLength="1015.10" waitSteps="0" timeLoss="15.02" rerouteNo="0" devices="tripinfo_left_65" vType="typeWE" speedFactor="1.00" vaporized=""/>
    <tripinfo id="right_70" depart="176.00" departLane="51o_0" departPos="5.10" departSpeed="0.00" departDelay="0.00" arrival="266.00" arrivalLane="52i_0" arrivalPos="10.00" arrivalSpeed="11.43" duration="90.00" routeLength="1015.10" waitSteps="0" timeLoss="13.86" rerouteNo="0" devices="tripinfo_right_70" vType="typeWE" speedFactor="1.00" vaporized=""/>
    <tripinfo id="left_67" depart="176.00" departLane="52o_0" departPos="5.10" departSpeed="0.00" departDelay="3.00" arrival="266.00" arrivalLane="51i_0" arrivalPos="10.00" arrivalSpeed="11.28" duration="90.00" routeLength="1015.10" waitSteps="0" timeLoss="14.02" rerouteNo="0" devices="tripinfo_left_67" vType="typeWE" speedFactor="1.00" vaporized=""/>
    <tripinfo id="right_71" depart="181.00" departLane="51o_0" departPos="5.10" departSpeed="0.00" departDelay="4.00" arrival="272.00" arrivalLane="52i_0" arrivalPos="10.00" arrivalSpeed="11.55" duration="91.00" routeLength="1015.10" waitSteps="0" timeLoss="14.73" rerouteNo="0" devices="tripinfo_right_71" vType="typeWE" speedFactor="1.00" vaporized=""/>
    <tripinfo id="right_72" depart="186.00" departLane="51o_0" departPos="5.10" departSpeed="0.00" departDelay="7.00" arrival="278.00" arrivalLane="52i_0" arrivalPos="10.00" arrivalSpeed="11.68" duration="92.00" routeLength="1015.10" waitSteps="0" timeLoss="15.77" rerouteNo="0" devices="tripinfo_right_72" vType="typeWE" speedFactor="1.00" vaporized=""/>
    <tripinfo id="right_74" depart="191.00" departLane="51o_0" departPos="5.10" departSpeed="0.00" departDelay="4.00" arrival="283.00" arrivalLane="52i_0" arrivalPos="10.00" arrivalSpeed="11.49" duration="92.00" routeLength="1015.10" waitSteps="0" timeLoss="15.78" rerouteNo="0" devices="tripinfo_right_74" vType="typeWE" speedFactor="1.00" vaporized=""/>
    <tripinfo id="right_78" depart="196.00" departLane="51o_0" departPos="5.10" departSpeed="0.00" departDelay="0.00" arrival="287.00" arrivalLane="52i_0" arrivalPos="10.00" arrivalSpeed="11.60" duration="91.00" routeLength="1015.10" waitSteps="0" timeLoss="14.81" rerouteNo="0" devices="tripinfo_right_78" vType="typeWE" speedFactor="1.00" vaporized=""/>
    <tripinfo id="down_51" depart="139.00" departLane="54o_0" departPos="5.10" departSpeed="0.00" departDelay="0.00" arrival="296.00" arrivalLane="53i_0" arrivalPos="10.00" arrivalSpeed="11.61" duration="157.00" routeLength="1015.10" waitSteps="56" timeLoss="80.88" rerouteNo="0" devices="tripinfo_down_51" vType="typeNS" speedFactor="1.00" vaporized=""/>
    <tripinfo id="up_50" depart="138.00" departLane="53o_0" departPos="5.10" departSpeed="0.00" departDelay="0.00" arrival="297.00" arrivalLane="54i_0" arrivalPos="10.00" arrivalSpeed="11.31" duration="159.00" routeLength="1015.10" waitSteps="57" timeLoss="82.68" rerouteNo="0" devices="tripinfo_up_50" vType="typeNS" speedFactor="1.00" vaporized=""/>
    <tripinfo id="up_54" depart="143.00" departLane="53o_0" departPos="5.10" departSpeed="0.00" departDelay="1.00" arrival="299.00" arrivalLane="54i_0" arrivalPos="10.00" arrivalSpeed="11.42" duration="156.00" routeLength="1015.10" waitSteps="52" timeLoss="79.91" rerouteNo="0" devices="tripinfo_up_54" vType="typeNS" speedFactor="1.00" vaporized=""/>
    <tripinfo id="down_56" depart="147.00" departLane="54o_0" departPos="5.10" departSpeed="0.00" departDelay="0.00" arrival="299.00" arrivalLane="53i_0" arrivalPos="10.00" arrivalSpeed="11.54" duration="152.00" routeLength="1015.10" waitSteps="48" timeLoss="75.69" rerouteNo="0" devices="tripinfo_down_56" vType="typeNS" speedFactor="1.00" vaporized=""/>
    <tripinfo id="up_55" depart="148.00" departLane="53o_0" departPos="5.10" departSpeed="0.00" departDelay="4.00" arrival="301.00" arrivalLane="54i_0" arrivalPos="10.00" arrivalSpeed="11.46" duration="153.00" routeLength="1015.10" waitSteps="48" timeLoss="76.98" rerouteNo="0" devices="tripinfo_up_55" vType="typeNS" speedFactor="1.00" vaporized=""/>
    <tripinfo id="down_58" depart="154.00" departLane="54o_0" departPos="5.10" departSpeed="0.00" departDelay="0.00" arrival="301.00" arrivalLane="53i_0" arrivalPos="10.00" arrivalSpeed="11.39" duration="147.00" routeLength="1015.10" waitSteps="44" timeLoss="70.44" rerouteNo="0" devices="tripinfo_down_58" vType="typeNS" speedFactor="1.00" vaporized=""/>
    <tripinfo id="up_73" depart="180.00" departLane="53o_0" departPos="5.10" departSpeed="0.00" departDelay="1.00" arrival="303.00" arrivalLane="54i_0" arrivalPos="10.00" arrivalSpeed="11.74" duration="123.00" routeLength="1015.10" waitSteps="18" timeLoss="46.89" rerouteNo="0" devices="tripinfo_up_73" vType="typeNS" speedFactor="1.00" vaporized=""/>
    <tripinfo id="down_59" depart="159.00" departLane="54o_0" departPos="5.10" departSpeed="0.00" departDelay="4.00" arrival="303.00" arrivalLane="53i_0" arrivalPos="10.00" arrivalSpeed="11.69" duration="144.00" routeLength="1015.10" waitSteps="40" timeLoss="67.42" rerouteNo="0" devices="tripinfo_down_59" vType="typeNS" speedFactor="1.00" vaporized=""/>
    <tripinfo id="down_60" depart="164.00" departLane="54o_0" departPos="5.10" departSpeed="0.00" departDelay="8.00" arrival="304.00" arrivalLane="53i_0" arrivalPos="10.00" arrivalSpeed="10.78" duration="140.00" routeLength="1015.10" waitSteps="36" timeLoss="63.96" rerouteNo="0" devices="tripinfo_down_60" vType="typeNS" speedFactor="1.00" vaporized=""/>
    <tripinfo id="up_75" depart="188.00" departLane="53o_0" departPos="5.10" departSpeed="0.00" departDelay="0.00" arrival="305.00" arrivalLane="54i_0" arrivalPos="10.00" arrivalSpeed="11.56" duration="117.00" routeLength="1015.10" waitSteps="13" timeLoss="40.64" rerouteNo="0" devices="tripinfo_up_75" vType="typeNS" speedFactor="1.00" vaporized=""/>
    <tripinfo id="down_61" depart="169.00" departLane="54o_0" departPos="5.10" departSpeed="0.00" departDelay="10.00" arrival="306.00" arrivalLane="53i_0" arrivalPos="10.00" arrivalSpeed="11.35" duration="137.00" routeLength="1015.10" waitSteps="33" timeLoss="61.06" rerouteNo="0" devices="tripinfo_down_61" vType="typeNS" speedFactor="1.00" vaporized=""/>
    <tripinfo id="up_77" depart="193.00" departLane="53o_0" departPos="5.10" departSpeed="0.00" departDelay="0.00" arrival="307.00" arrivalLane="54i_0" arrivalPos="10.00" arrivalSpeed="11.43" duration="114.00" routeLength="1015.10" waitSteps="9" timeLoss="37.46" rerouteNo="0" devices="tripinfo_up_77" vType="typeNS" speedFactor="1.00" vaporized=""/>
    <tripinfo id="down_63" depart="174.00" departLane="54o_0" departPos="5.10" departSpeed="0.00" departDelay="12.00" arrival="308.00" arrivalLane="53i_0" arrivalPos="10.00" arrivalSpeed="11.40" duration="134.00" routeLength="1015.10" waitSteps="31" timeLoss="57.98" rerouteNo="0" devices="tripinfo_down_63" vType="typeNS" speedFactor="1.00" vaporized=""/>
    <tripinfo id="up_87" depart="216.00" departLane="53o_0" departPos="5.10" departSpeed="0.00" departDelay="0.00" arrival="309.00" arrivalLane="54i_0" arrivalPos="10.00" arrivalSpeed="11.25" duration="93.00" routeLength="1015.10" waitSteps="0" timeLoss="16.46" rerouteNo="0" devices="tripinfo_up_87" vType="typeNS" speedFactor="1.00" vaporized=""/>
    <tripinfo id="down_66" depart="181.00" departLane="54o_0" departPos="5.10" departSpeed="0.00" departDelay="9.00" arrival="310.00" arrivalLane="53i_0" arrivalPos="10.00" arrivalSpeed="11.79" duration="129.00" routeLength="1015.10" waitSteps="24" timeLoss="52.77" rerouteNo="0" devices="tripinfo_down_66" vType="typeNS" speedFactor="1.00" vaporized=""/>
    <tripinfo id="down_68" depart="188.00" departLane="54o_0" departPos="5.10" departSpeed="0.00" departDelay="14.00" arrival="312.00" arrivalLane="53i_0" arrivalPos="10.00" arrivalSpeed="11.46" duration="124.00" routeLength="1015.10" waitSteps="18" timeLoss="48.19" rerouteNo="0" devices="tripinfo_down_68" vType="typeNS" speedFactor="1.00" vaporized=""/>
    <tripinfo id="down_69" depart="193.00" departLane="54o_0" departPos="5.10" departSpeed="0.00" departDelay="18.00" arrival="315.00" arrivalLane="53i_0" arrivalPos="10.00" arrivalSpeed="11.36" duration="122.00" routeLength="1015.10" waitSteps="15" timeLoss="45.95" rerouteNo="0" devices="tripinfo_down_69" vType="typeNS" speedFactor="1.00" vaporized=""/>
    <tripinfo id="down_76" depart="198.00" departLane="54o_0" departPos="5.10" departSpeed="0.00" departDelay="7.00" arrival="317.00" arrivalLane="53i_0" arrivalPos="10.00" arrivalSpeed="11.35" duration="119.00" routeLength="1015.10" waitSteps="12" timeLoss="43.06" rerouteNo="0" devices="tripinfo_down_76" vType="typeNS" speedFactor="1.00" vaporized=""/>
    <tripinfo id="down_80" depart="203.00" departLane="54o_0" departPos="5.10" departSpeed="0.00" departDelay="6.00" arrival="319.00" arrivalLane="53i_0" arrivalPos="10.00" arrivalSpeed="11.63" duration="116.00" routeLength="1015.10" waitSteps="8" timeLoss="39.99" rerouteNo="0" devices="tripinfo_down_80" vType="typeNS" speedFactor="1.00" vaporized=""/>