<?xml version="1.0" encoding="UTF-8"?>

<!-- generated on Mon Apr 30 16:37:31 2018 by SUMO Version 0.32.0
<?xml version="1.0" encoding="UTF-8"?>

<configuration xmlns:xsi="http://www.w3.org/2001/XMLSchema-instance" xsi:noNamespaceSchemaLocation="http://sumo.dlr.de/xsd/sumoConfiguration.xsd">

    <input>
        <net-file value="data/cross.net.xml"/>
        <route-files value="data/cross.rou.xml"/>
        <additional-files value="data/cross.det.xml"/>
    </input>

    <output>
        <summary-output value="data/cross.out"/>
        <tripinfo-output value="output/tripinfo77.xml"/>
    </output>

    <time>
        <begin value="0"/>
    </time>

    <report>
        <verbose value="true"/>
        <duration-log.statistics value="true"/>
        <no-step-log value="true"/>
    </report>

    <traci_server>
        <remote-port value="55125"/>
    </traci_server>

</configuration>
-->

<tripinfos xmlns:xsi="http://www.w3.org/2001/XMLSchema-instance" xsi:noNamespaceSchemaLocation="http://sumo.dlr.de/xsd/tripinfo_file.xsd">
    <tripinfo id="up_2" depart="15.00" departLane="53o_0" departPos="5.10" departSpeed="0.00" departDelay="0.00" arrival="106.00" arrivalLane="54i_0" arrivalPos="10.00" arrivalSpeed="11.24" duration="91.00" routeLength="1015.10" waitSteps="0" timeLoss="14.65" rerouteNo="0" devices="tripinfo_up_2" vType="typeNS" speedFactor="1.00" vaporized=""/>
    <tripinfo id="down_3" depart="16.00" departLane="54o_0" departPos="5.10" departSpeed="0.00" departDelay="0.00" arrival="106.00" arrivalLane="53i_0" arrivalPos="10.00" arrivalSpeed="11.35" duration="90.00" routeLength="1015.10" waitSteps="0" timeLoss="14.03" rerouteNo="0" devices="tripinfo_down_3" vType="typeNS" speedFactor="1.00" vaporized=""/>
    <tripinfo id="left_4" depart="18.00" departLane="52o_0" departPos="5.10" departSpeed="0.00" departDelay="0.00" arrival="111.00" arrivalLane="51i_0" arrivalPos="10.00" arrivalSpeed="11.52" duration="93.00" routeLength="1015.10" waitSteps="0" timeLoss="16.44" rerouteNo="0" devices="tripinfo_left_4" vType="typeWE" speedFactor="1.00" vaporized=""/>
    <tripinfo id="left_8" depart="23.00" departLane="52o_0" departPos="5.10" departSpeed="0.00" departDelay="0.00" arrival="114.00" arrivalLane="51i_0" arrivalPos="10.00" arrivalSpeed="11.65" duration="91.00" routeLength="1015.10" waitSteps="0" timeLoss="14.68" rerouteNo="0" devices="tripinfo_left_8" vType="typeWE" speedFactor="1.00" vaporized=""/>
    <tripinfo id="right_0" depart="6.00" departLane="51o_0" departPos="5.10" departSpeed="0.00" departDelay="0.00" arrival="116.00" arrivalLane="52i_0" arrivalPos="10.00" arrivalSpeed="11.61" duration="110.00" routeLength="1015.10" waitSteps="9" timeLoss="33.91" rerouteNo="0" devices="tripinfo_right_0" vType="typeWE" speedFactor="1.00" vaporized=""/>
    <tripinfo id="right_1" depart="11.00" departLane="51o_0" departPos="5.10" departSpeed="0.00" departDelay="2.00" arrival="119.00" arrivalLane="52i_0" arrivalPos="10.00" arrivalSpeed="11.72" duration="108.00" routeLength="1015.10" waitSteps="4" timeLoss="31.61" rerouteNo="0" devices="tripinfo_right_1" vType="typeWE" speedFactor="1.00" vaporized=""/>
    <tripinfo id="right_5" depart="21.00" departLane="51o_0" departPos="5.10" departSpeed="0.00" departDelay="0.00" arrival="121.00" arrivalLane="52i_0" arrivalPos="10.00" arrivalSpeed="11.28" duration="100.00" routeLength="1015.10" waitSteps="0" timeLoss="23.73" rerouteNo="0" devices="tripinfo_right_5" vType="typeWE" speedFactor="1.00" vaporized=""/>
    <tripinfo id="left_16" depart="31.00" departLane="52o_0" departPos="5.10" departSpeed="0.00" departDelay="0.00" arrival="122.00" arrivalLane="51i_0" arrivalPos="10.00" arrivalSpeed="11.44" duration="91.00" routeLength="1015.10" waitSteps="0" timeLoss="14.14" rerouteNo="0" devices="tripinfo_left_16" vType="typeWE" speedFactor="1.00" vaporized=""/>
    <tripinfo id="right_6" depart="26.00" departLane="51o_0" departPos="5.10" departSpeed="0.00" departDelay="4.00" arrival="123.00" arrivalLane="52i_0" arrivalPos="10.00" arrivalSpeed="11.68" duration="97.00" routeLength="1015.10" waitSteps="0" timeLoss="20.50" rerouteNo="0" devices="tripinfo_right_6" vType="typeWE" speedFactor="1.00" vaporized=""/>
    <tripinfo id="right_10" depart="31.00" departLane="51o_0" departPos="5.10" departSpeed="0.00" departDelay="4.00" arrival="124.00" arrivalLane="52i_0" arrivalPos="10.00" arrivalSpeed="10.72" duration="93.00" routeLength="1015.10" waitSteps="0" timeLoss="16.96" rerouteNo="0" devices="tripinfo_right_10" vType="typeWE" speedFactor="1.00" vaporized=""/>
    <tripinfo id="left_18" depart="37.00" departLane="52o_0" departPos="5.10" departSpeed="0.00" departDelay="0.00" arrival="129.00" arrivalLane="51i_0" arrivalPos="10.00" arrivalSpeed="11.40" duration="92.00" routeLength="1015.10" waitSteps="0" timeLoss="15.26" rerouteNo="0" devices="tripinfo_left_18" vType="typeWE" speedFactor="1.00" vaporized=""/>
    <tripinfo id="right_14" depart="37.00" departLane="51o_0" departPos="5.10" departSpeed="0.00" departDelay="7.00" arrival="129.00" arrivalLane="52i_0" arrivalPos="10.00" arrivalSpeed="11.34" duration="92.00" routeLength="1015.10" waitSteps="0" timeLoss="15.82" rerouteNo="0" devices="tripinfo_right_14" vType="typeWE" speedFactor="1.00" vaporized=""/>
    <tripinfo id="left_20" depart="42.00" departLane="52o_0" departPos="5.10" departSpeed="0.00" departDelay="1.00" arrival="134.00" arrivalLane="51i_0" arrivalPos="10.00" arrivalSpeed="11.66" duration="92.00" routeLength="1015.10" waitSteps="0" timeLoss="15.95" rerouteNo="0" devices="tripinfo_left_20" vType="typeWE" speedFactor="1.00" vaporized=""/>
    <tripinfo id="right_15" depart="42.00" departLane="51o_0" departPos="5.10" departSpeed="0.00" departDelay="11.00" arrival="134.00" arrivalLane="52i_0" arrivalPos="10.00" arrivalSpeed="11.37" duration="92.00" routeLength="1015.10" waitSteps="1" timeLoss="15.68" rerouteNo="0" devices="tripinfo_right_15" vType="typeWE" speedFactor="1.00" vaporized=""/>
    <tripinfo id="left_23" depart="47.00" departLane="52o_0" departPos="5.10" departSpeed="0.00" departDelay="2.00" arrival="139.00" arrivalLane="51i_0" arrivalPos="10.00" arrivalSpeed="11.68" duration="92.00" routeLength="1015.10" waitSteps="0" timeLoss="15.86" rerouteNo="0" devices="tripinfo_left_23" vType="typeWE" speedFactor="1.00" vaporized=""/>
    <tripinfo id="right_19" depart="48.00" departLane="51o_0" departPos="5.10" departSpeed="0.00" departDelay="7.00" arrival="139.00" arrivalLane="52i_0" arrivalPos="10.00" arrivalSpeed="11.86" duration="91.00" routeLength="1015.10" waitSteps="0" timeLoss="15.01" rerouteNo="0" devices="tripinfo_right_19" vType="typeWE" speedFactor="1.00" vaporized=""/>
    <tripinfo id="left_24" depart="52.00" departLane="52o_0" departPos="5.10" departSpeed="0.00" departDelay="5.00" arrival="145.00" arrivalLane="51i_0" arrivalPos="10.00" arrivalSpeed="11.48" duration="93.00" routeLength="1015.10" waitSteps="1" timeLoss="16.73" rerouteNo="0" devices="tripinfo_left_24" vType="typeWE" speedFactor="1.00" vaporized=""/>
    <tripinfo id="right_26" depart="56.00" departLane="51o_0" departPos="5.10" departSpeed="0.00" departDelay="0.00" arrival="148.00" arrivalLane="52i_0" arrivalPos="10.00" arrivalSpeed="11.42" duration="92.00" routeLength="1015.10" waitSteps="0" timeLoss="15.37" rerouteNo="0" devices="tripinfo_right_26" vType="typeWE" speedFactor="1.00" vaporized=""/>
    <tripinfo id="right_27" depart="68.00" departLane="51o_0" departPos="5.10" departSpeed="0.00" departDelay="0.00" arrival="159.00" arrivalLane="52i_0" arrivalPos="10.00" arrivalSpeed="11.45" duration="91.00" routeLength="1015.10" waitSteps="0" timeLoss="14.80" rerouteNo="0" devices="tripinfo_right_27" vType="typeWE" speedFactor="1.00" vaporized=""/>
    <tripinfo id="up_9" depart="25.00" departLane="53o_0" departPos="5.10" departSpeed="0.00" departDelay="0.00" arrival="177.00" arrivalLane="54i_0" arrivalPos="10.00" arrivalSpeed="11.49" duration="152.00" routeLength="1015.10" waitSteps="51" timeLoss="75.95" rerouteNo="0" devices="tripinfo_up_9" vType="typeNS" speedFactor="1.00" vaporized=""/>
    <tripinfo id="down_7" depart="22.00" departLane="54o_0" departPos="5.10" departSpeed="0.00" departDelay="0.00" arrival="177.00" arrivalLane="53i_0" arrivalPos="10.00" arrivalSpeed="11.70" duration="155.00" routeLength="1015.10" waitSteps="52" timeLoss="78.51" rerouteNo="0" devices="tripinfo_down_7" vType="typeNS" speedFactor="1.00" vaporized=""/>
    <tripinfo id="down_11" depart="27.00" departLane="54o_0" departPos="5.10" departSpeed="0.00" departDelay="0.00" arrival="178.00" arrivalLane="53i_0" arrivalPos="10.00" arrivalSpeed="11.05" duration="151.00" routeLength="1015.10" waitSteps="48" timeLoss="74.98" rerouteNo="0" devices="tripinfo_down_11" vType="typeNS" speedFactor="1.00" vaporized=""/>
    <tripinfo id="up_13" depart="30.00" departLane="53o_0" departPos="5.10" departSpeed="0.00" departDelay="1.00" arrival="179.00" arrivalLane="54i_0" arrivalPos="10.00" arrivalSpeed="11.59" duration="149.00" routeLength="1015.10" waitSteps="46" timeLoss="72.77" rerouteNo="0" devices="tripinfo_up_13" vType="typeNS" speedFactor="1.00" vaporized=""/>
    <tripinfo id="up_25" depart="52.00" departLane="53o_0" departPos="5.10" departSpeed="0.00" departDelay="0.00" arrival="181.00" arrivalLane="54i_0" arrivalPos="10.00" arrivalSpeed="11.62" duration="129.00" routeLength="1015.10" waitSteps="26" timeLoss="52.69" rerouteNo="0" devices="tripinfo_up_25" vType="typeNS" speedFactor="1.00" vaporized=""/>
    <tripinfo id="down_12" depart="32.00" departLane="54o_0" departPos="5.10" departSpeed="0.00" departDelay="4.00" arrival="181.00" arrivalLane="53i_0" arrivalPos="10.00" arrivalSpeed="11.64" duration="149.00" routeLength="1015.10" waitSteps="45" timeLoss="72.54" rerouteNo="0" devices="tripinfo_down_12" vType="typeNS" speedFactor="1.00" vaporized=""/>
    <tripinfo id="down_17" depart="37.00" departLane="54o_0" departPos="5.10" departSpeed="0.00" departDelay="5.00" arrival="183.00" arrivalLane="53i_0" arrivalPos="10.00" arrivalSpeed="11.69" duration="146.00" routeLength="1015.10" waitSteps="42" timeLoss="69.36" rerouteNo="0" devices="tripinfo_down_17" vType="typeNS" speedFactor="1.00" vaporized=""/>
    <tripinfo id="down_21" depart="43.00" departLane="54o_0" departPos="5.10" departSpeed="0.00" departDelay="1.00" arrival="184.00" arrivalLane="53i_0" arrivalPos="10.00" arrivalSpeed="11.66" duration="141.00" routeLength="1015.10" waitSteps="37" timeLoss="65.23" rerouteNo="0" devices="tripinfo_down_21" vType="typeNS" speedFactor="1.00" vaporized=""/>
    <tripinfo id="down_22" depart="48.00" departLane="54o_0" departPos="5.10" departSpeed="0.00" departDelay="5.00" arrival="186.00" arrivalLane="53i_0" arrivalPos="10.00" arrivalSpeed="11.61" duration="138.00" routeLength="1015.10" waitSteps="33" timeLoss="62.05" rerouteNo="0" devices="tripinfo_down_22" vType="typeNS" speedFactor="1.00" vaporized=""/>
    <tripinfo id="up_32" depart="97.00" departLane="53o_0" departPos="5.10" departSpeed="0.00" departDelay="0.00" arrival="188.00" arrivalLane="54i_0" arrivalPos="10.00" arrivalSpeed="11.55" duration="91.00" routeLength="1015.10" waitSteps="0" timeLoss="14.87" rerouteNo="0" devices="tripinfo_up_32" vType="typeNS" speedFactor="1.00" vaporized=""/>
    <tripinfo id="down_28" depart="68.00" departLane="54o_0" departPos="5.10" departSpeed="0.00" departDelay="0.00" arrival="189.00" arrivalLane="53i_0" arrivalPos="10.00" arrivalSpeed="11.44" duration="121.00" routeLength="1015.10" waitSteps="15" timeLoss="44.44" rerouteNo="0" devices="tripinfo_down_28" vType="typeNS" speedFactor="1.00" vaporized=""/>
    <tripinfo id="down_30" depart="85.00" departLane="54o_0" departPos="5.10" departSpeed="0.00" departDelay="0.00" arrival="191.00" arrivalLane="53i_0" arrivalPos="10.00" arrivalSpeed="11.66" duration="106.00" routeLength="1015.10" waitSteps="0" timeLoss="29.54" rerouteNo="0" devices="tripinfo_down_30" vType="typeNS" speedFactor="1.00" vaporized=""/>
    <tripinfo id="down_33" depart="100.00" departLane="54o_0" departPos="5.10" departSpeed="0.00" departDelay="0.00" arrival="193.00" arrivalLane="53i_0" arrivalPos="10.00" arrivalSpeed="11.53" duration="93.00" routeLength="1015.10" waitSteps="0" timeLoss="16.83" rerouteNo="0" devices="tripinfo_down_33" vType="typeNS" speedFactor="1.00" vaporized=""/>
    <tripinfo id="up_36" depart="102.00" departLane="53o_0" departPos="5.10" departSpeed="0.00" departDelay="0.00" arrival="194.00" arrivalLane="54i_0" arrivalPos="10.00" arrivalSpeed="11.80" duration="92.00" routeLength="1015.10" waitSteps="0" timeLoss="15.61" rerouteNo="0" devices="tripinfo_up_36" vType="typeNS" speedFactor="1.00" vaporized=""/>
    <tripinfo id="down_35" depart="106.00" departLane="54o_0" departPos="5.10" departSpeed="0.00" departDelay="4.00" arrival="197.00" arrivalLane="53i_0" arrivalPos="10.00" arrivalSpeed="11.78" duration="91.00" routeLength="1015.10" waitSteps="0" timeLoss="14.80" rerouteNo="0" devices="tripinfo_down_35" vType="typeNS" speedFactor="1.00" vaporized=""/>
    <tripinfo id="up_39" depart="107.00" departLane="53o_0" departPos="5.10" departSpeed="0.00" departDelay="2.00" arrival="198.00" arrivalLane="54i_0" arrivalPos="10.00" arrivalSpeed="11.27" duration="91.00" routeLength="1015.10" waitSteps="0" timeLoss="15.00" rerouteNo="0" devices="tripinfo_up_39" vType="typeNS" speedFactor="1.00" vaporized=""/>
    <tripinfo id="down_37" depart="111.00" departLane="54o_0" departPos="5.10" departSpeed="0.00" departDelay="7.00" arrival="204.00" arrivalLane="53i_0" arrivalPos="10.00" arrivalSpeed="11.35" duration="93.00" routeLength="1015.10" waitSteps="0" timeLoss="16.25" rerouteNo="0" devices="tripinfo_down_37" vType="typeNS" speedFactor="1.00" vaporized=""/>
    <tripinfo id="up_41" depart="112.00" departLane="53o_0" departPos="5.10" departSpeed="0.00" departDelay="1.00" arrival="205.00" arrivalLane="54i_0" arrivalPos="10.00" arrivalSpeed="11.40" duration="93.00" routeLength="1015.10" waitSteps="0" timeLoss="16.25" rerouteNo="0" devices="tripinfo_up_41" vType="typeNS" speedFactor="1.00" vaporized=""/>
    <tripinfo id="down_40" depart="117.00" departLane="54o_0" departPos="5.10" departSpeed="0.00" departDelay="7.00" arrival="208.00" arrivalLane="53i_0" arrivalPos="10.00" arrivalSpeed="11.43" duration="91.00" routeLength="1015.10" waitSteps="0" timeLoss="14.80" rerouteNo="0" devices="tripinfo_down_40" vType="typeNS" speedFactor="1.00" vaporized=""/>
    <tripinfo id="up_43" depart="117.00" departLane="53o_0" departPos="5.10" departSpeed="0.00" departDelay="4.00" arrival="209.00" arrivalLane="54i_0" arrivalPos="10.00" arrivalSpeed="11.59" duration="92.00" routeLength="1015.10" waitSteps="0" timeLoss="15.67" rerouteNo="0" devices="tripinfo_up_43" vType="typeNS" speedFactor="1.00" vaporized=""/>
    <tripinfo id="down_42" depart="122.00" departLane="54o_0" departPos="5.10" departSpeed="0.00" departDelay="10.00" arrival="212.00" arrivalLane="53i_0" arrivalPos="10.00" arrivalSpeed="11.53" duration="90.00" routeLength="1015.10" waitSteps="0" timeLoss="13.76" rerouteNo="0" devices="tripinfo_down_42" vType="typeNS" speedFactor="1.00" vaporized=""/>
    <tripinfo id="up_44" depart="123.00" departLane="53o_0" departPos="5.10" departSpeed="0.00" departDelay="9.00" arrival="215.00" arrivalLane="54i_0" arrivalPos="10.00" arrivalSpeed="11.88" duration="92.00" routeLength="1015.10" waitSteps="0" timeLoss="15.26" rerouteNo="0" devices="tripinfo_up_44" vType="typeNS" speedFactor="1.00" vaporized=""/>
    <tripinfo id="down_45" depart="127.00" departLane="54o_0" departPos="5.10" departSpeed="0.00" departDelay="11.00" arrival="218.00" arrivalLane="53i_0" arrivalPos="10.00" arrivalSpeed="11.16" duration="91.00" routeLength="1015.10" waitSteps="0" timeLoss="14.30" rerouteNo="0" devices="tripinfo_down_45" vType="typeNS" speedFactor="1.00" vaporized=""/>
    <tripinfo id="up_48" depart="128.00" departLane="53o_0" departPos="5.10" departSpeed="0.00" departDelay="2.00" arrival="220.00" arrivalLane="54i_0" arrivalPos="10.00" arrivalSpeed="11.81" duration="92.00" routeLength="1015.10" waitSteps="0" timeLoss="15.74" rerouteNo="0" devices="tripinfo_up_48" vType="typeNS" speedFactor="1.00" vaporized=""/>
    <tripinfo id="down_46" depart="132.00" departLane="54o_0" departPos="5.10" departSpeed="0.00" departDelay="15.00" arrival="223.00" arrivalLane="53i_0" arrivalPos="10.00" arrivalSpeed="11.51" duration="91.00" routeLength="1015.10" waitSteps="0" timeLoss="14.74" rerouteNo="0" devices="tripinfo_down_46" vType="typeNS" speedFactor="1.00" vaporized=""/>
    <tripinfo id="up_50" depart="133.00" departLane="53o_0" departPos="5.10" departSpeed="0.00" departDelay="5.00" arrival="225.00" arrivalLane="54i_0" arrivalPos="10.00" arrivalSpeed="11.78" duration="92.00" routeLength="1015.10" waitSteps="0" timeLoss="15.65" rerouteNo="0" devices="tripinfo_up_50" vType="typeNS" speedFactor="1.00" vaporized=""/>
    <tripinfo id="left_29" depart="77.00" departLane="52o_0" departPos="5.10" departSpeed="0.00" departDelay="0.00" arrival="236.00" arrivalLane="51i_0" arrivalPos="10.00" arrivalSpeed="11.11" duration="159.00" routeLength="1015.10" waitSteps="60" timeLoss="83.07" rerouteNo="0" devices="tripinfo_left_29" vType="typeWE" speedFactor="1.00" vaporized=""/>
    <tripinfo id="right_31" depart="96.00" departLane="51o_0" departPos="5.10" departSpeed="0.00" departDelay="0.00" arrival="237.00" arrivalLane="52i_0" arrivalPos="10.00" arrivalSpeed="11.75" duration="141.00" routeLength="1015.10" waitSteps="39" timeLoss="64.68" rerouteNo="0" devices="tripinfo_right_31" vType="typeWE" speedFactor="1.00" vaporized=""/>
    <tripinfo id="left_51" depart="137.00" departLane="52o_0" departPos="5.10" departSpeed="0.00" departDelay="0.00" arrival="238.00" arrivalLane="51i_0" arrivalPos="10.00" arrivalSpeed="11.68" duration="101.00" routeLength="1015.10" waitSteps="0" timeLoss="25.10" rerouteNo="0" devices="tripinfo_left_51" vType="typeWE" speedFactor="1.00" vaporized=""/>
    <tripinfo id="right_34" depart="102.00" departLane="51o_0" departPos="5.10" departSpeed="0.00" departDelay="0.00" arrival="239.00" arrivalLane="52i_0" arrivalPos="10.00" arrivalSpeed="11.35" duration="137.00" routeLength="1015.10" waitSteps="34" timeLoss="61.15" rerouteNo="0" devices="tripinfo_right_34" vType="typeWE" speedFactor="1.00" vaporized=""/>
    <tripinfo id="left_55" depart="148.00" departLane="52o_0" departPos="5.10" departSpeed="0.00" departDelay="1.00" arrival="240.00" arrivalLane="51i_0" arrivalPos="10.00" arrivalSpeed="11.40" duration="92.00" routeLength="1015.10" waitSteps="0" timeLoss="15.88" rerouteNo="0" devices="tripinfo_left_55" vType="typeWE" speedFactor="1.00" vaporized=""/>
    <tripinfo id="right_38" depart="107.00" departLane="51o_0" departPos="5.10" departSpeed="0.00" departDelay="2.00" arrival="241.00" arrivalLane="52i_0" arrivalPos="10.00" arrivalSpeed="11.54" duration="134.00" routeLength="1015.10" waitSteps="30" timeLoss="58.08" rerouteNo="0" devices="tripinfo_right_38" vType="typeWE" speedFactor="1.00" vaporized=""/>
    <tripinfo id="right_47" depart="118.00" departLane="51o_0" departPos="5.10" departSpeed="0.00" departDelay="0.00" arrival="243.00" arrivalLane="52i_0" arrivalPos="10.00" arrivalSpeed="11.49" duration="125.00" routeLength="1015.10" waitSteps="20" timeLoss="49.02" rerouteNo="0" devices="tripinfo_right_47" vType="typeWE" speedFactor="1.00" vaporized=""/>
    <tripinfo id="left_57" depart="153.00" departLane="52o_0" departPos="5.10" departSpeed="0.00" departDelay="2.00" arrival="245.00" arrivalLane="51i_0" arrivalPos="10.00" arrivalSpeed="11.81" duration="92.00" routeLength="1015.10" waitSteps="0" timeLoss="15.68" rerouteNo="0" devices="tripinfo_left_57" vType="typeWE" speedFactor="1.00" vaporized=""/>
    <tripinfo id="right_54" depart="147.00" departLane="51o_0" departPos="5.10" departSpeed="0.00" departDelay="0.00" arrival="245.00" arrivalLane="52i_0" arrivalPos="10.00" arrivalSpeed="11.34" duration="98.00" routeLength="1015.10" waitSteps="0" timeLoss="21.73" rerouteNo="0" devices="tripinfo_right_54" vType="typeWE" speedFactor="1.00" vaporized=""/>
    <tripinfo id="right_60" depart="158.00" departLane="51o_0" departPos="5.10" departSpeed="0.00" departDelay="0.00" arrival="250.00" arrivalLane="52i_0" arrivalPos="10.00" arrivalSpeed="11.41" duration="92.00" routeLength="1015.10" waitSteps="0" timeLoss="15.22" rerouteNo="0" devices="tripinfo_right_60" vType="typeWE" speedFactor="1.00" vaporized=""/>
    <tripinfo id="right_61" depart="163.00" departLane="51o_0" departPos="5.10" departSpeed="0.00" departDelay="4.00" arrival="255.00" arrivalLane="52i_0" arrivalPos="10.00" arrivalSpeed="11.51" duration="92.00" routeLength="1015.10" waitSteps="0" timeLoss="15.77" rerouteNo="0" devices="tripinfo_right_61" vType="typeWE" speedFactor="1.00" vaporized=""/>
    <tripinfo id="right_63" depart="168.00" departLane="51o_0" departPos="5.10" departSpeed="0.00" departDelay="7.00" arrival="260.00" arrivalLane="52i_0" arrivalPos="10.00" arrivalSpeed="11.35" duration="92.00" routeLength="1015.10" waitSteps="1" timeLoss="15.38" rerouteNo="0" devices="tripinfo_right_63" vType="typeWE" speedFactor="1.00" vaporized=""/>
    <tripinfo id="left_65" depart="171.00" departLane="52o_0" departPos="5.10" departSpeed="0.00" departDelay="0.00" arrival="262.00" arrivalLane="51i_0" arrivalPos="10.00" arrivalSpeed="11.72" duration="91.00" routeLength="1015.10" waitSteps="0" timeLoss="14.83" rerouteNo="0" devices="tripinfo_left_65" vType="typeWE" speedFactor="1.00" vaporized=""/>
    <tripinfo id="right_66" depart="174.00" departLane="51o_0" departPos="5.10" departSpeed="0.00" departDelay="1.00" arrival="266.00" arrivalLane="52i_0" arrivalPos="10.00" arrivalSpeed="11.45" duration="92.00" routeLength="1015.10" waitSteps="0" timeLoss="15.96" rerouteNo="0" devices="tripinfo_right_66" vType="typeWE" speedFactor="1.00" vaporized=""/>
    <tripinfo id="right_67" depart="179.00" departLane="51o_0" departPos="5.10" departSpeed="0.00" departDelay="2.00" arrival="270.00" arrivalLane="52i_0" arrivalPos="10.00" arrivalSpeed="11.73" duration="91.00" routeLength="1015.10" waitSteps="0" timeLoss="14.37" rerouteNo="0" devices="tripinfo_right_67" vType="typeWE" speedFactor="1.00" vaporized=""/>
    <tripinfo id="right_69" depart="184.00" departLane="51o_0" departPos="5.10" departSpeed="0.00" departDelay="2.00" arrival="275.00" arrivalLane="52i_0" arrivalPos="10.00" arrivalSpeed="11.36" duration="91.00" routeLength="1015.10" waitSteps="0" timeLoss="14.69" rerouteNo="0" devices="tripinfo_right_69" vType="typeWE" speedFactor="1.00" vaporized=""/>
    <tripinfo id="left_70" depart="192.00" departLane="52o_0" departPos="5.10" departSpeed="0.00" departDelay="0.00" arrival="284.00" arrivalLane="51i_0" arrivalPos="10.00" arrivalSpeed="11.31" duration="92.00" routeLength="1015.10" waitSteps="0" timeLoss="15.41" rerouteNo="0" devices="tripinfo_left_70" vType="typeWE" speedFactor="1.00" vaporized=""/>
    <tripinfo id="down_49" depart="137.00" departLane="54o_0" departPos="5.10" departSpeed="0.00" departDelay="9.00" arrival="296.00" arrivalLane="53i_0" arrivalPos="10.00" arrivalSpeed="11.35" duration="159.00" routeLength="1015.10" waitSteps="59" timeLoss="82.64" rerouteNo="0" devices="tripinfo_down_49" vType="typeNS" speedFactor="1.00" vaporized=""/>
    <tripinfo id="up_52" depart="141.00" departLane="53o_0" departPos="5.10" departSpeed="0.00" departDelay="0.00" arrival="296.00" arrivalLane="54i_0" arrivalPos="10.00" arrivalSpeed="11.58" duration="155.00" routeLength="1015.10" waitSteps="54" timeLoss="78.49" rerouteNo="0" devices="tripinfo_up_52" vType="typeNS" speedFactor="1.00" vaporized=""/>
    <tripinfo id="down_58" depart="151.00" departLane="54o_0" departPos="5.10" departSpeed="0.00" departDelay="0.00" arrival="298.00" arrivalLane="53i_0" arrivalPos="10.00" arrivalSpeed="11.45" duration="147.00" routeLength="1015.10" waitSteps="43" timeLoss="71.28" rerouteNo="0" devices="tripinfo_down_58" vType="typeNS" speedFactor="1.00" vaporized=""/>
    <tripinfo id="up_53" depart="146.00" departLane="53o_0" departPos="5.10" departSpeed="0.00" departDelay="3.00" arrival="298.00" arrivalLane="54i_0" arrivalPos="10.00" arrivalSpeed="11.28" duration="152.00" routeLength="1015.10" waitSteps="51" timeLoss="75.96" rerouteNo="0" devices="tripinfo_up_53" vType="typeNS" speedFactor="1.00" vaporized=""/>
    <tripinfo id="down_62" depart="159.00" departLane="54o_0" departPos="5.10" departSpeed="0.00" departDelay="0.00" arrival="300.00" arrivalLane="53i_0" arrivalPos="10.00" arrivalSpeed="11.15" duration="141.00" routeLength="1015.10" waitSteps="38" timeLoss="65.10" rerouteNo="0" devices="tripinfo_down_62" vType="typeNS" speedFactor="1.00" vaporized=""/>
    <tripinfo id="up_56" depart="151.00" departLane="53o_0" departPos="5.10" departSpeed="0.00" departDelay="1.00" arrival="300.00" arrivalLane="54i_0" arrivalPos="10.00" arrivalSpeed="11.56" duration="149.00" routeLength="1015.10" waitSteps="45" timeLoss="73.00" rerouteNo="0" devices="tripinfo_up_56" vType="typeNS" speedFactor="1.00" vaporized=""/>
    <tripinfo id="down_74" depart="198.00" departLane="54o_0" departPos="5.10" departSpeed="0.00" departDelay="1.00" arrival="302.00" arrivalLane="53i_0" arrivalPos="10.00" arrivalSpeed="11.51" duration="104.00" routeLength="1015.10" waitSteps="2" timeLoss="28.05" rerouteNo="0" devices="tripinfo_down_74" vType="typeNS" speedFactor="1.00" vaporized=""/>
    <tripinfo id="up_59" depart="156.00" departLane="53o_0" departPos="5.10" departSpeed="0.00" departDelay="5.00" arrival="303.00" arrivalLane="54i_0" arrivalPos="10.00" arrivalSpeed="11.71" duration="147.00" routeLength="1015.10" waitSteps="42" timeLoss="70.63" rerouteNo="0" devices="tripinfo_up_59" vType="typeNS" speedFactor="1.00" vaporized=""/>
    <tripinfo id="down_76" depart="205.00" departLane="54o_0" departPos="5.10" departSpeed="0.00" departDelay="2.00" arrival="304.00" arrivalLane="53i_0" arrivalPos="10.00" arrivalSpeed="11.43" duration="99.00" routeLength="1015.10" waitSteps="0" timeLoss="22.94" rerouteNo="0" devices="tripinfo_down_76" vType="typeNS" speedFactor="1.00" vaporized=""/>
    <tripinfo id="up_64" depart="169.00" departLane="53o_0" departPos="5.10" departSpeed="0.00" departDelay="0.00" arrival="305.00" arrivalLane="54i_0" arrivalPos="10.00" arrivalSpeed="11.64" duration="136.00" routeLength="1015.10" waitSteps="30" timeLoss="59.67" rerouteNo="0" devices="tripinfo_up_64" vType="typeNS" speedFactor="1.00" vaporized=""/>
    <tripinfo id="down_78" depart="210.00" departLane="54o_0" departPos="5.10" departSpeed="0.00" departDelay="5.00" arrival="306.00" arrivalLane="53i_0" arrivalPos="10.00" arrivalSpeed="11.34" duration="96.00" routeLength="1015.10" waitSteps="0" timeLoss="19.91" rerouteNo="0" devices="tripinfo_down_78" vType="typeNS" speedFactor="1.00" vaporized=""/>
    <tripinfo id="up_68" depart="184.00" departLane="53o_0" departPos="5.10" departSpeed="0.00" departDelay="5.00" arrival="307.00" arrivalLane="54i_0" arrivalPos="10.00" arrivalSpeed="11.63" duration="123.00" routeLength="1015.10" waitSteps="18" timeLoss="46.40" rerouteNo="0" devices="tripinfo_up_68" vType="typeNS" speedFactor="1.00" vaporized=""/>
    <tripinfo id="up_71" depart="194.00" departLane="53o_0" departPos="5.10" departSpeed="0.00" departDelay="0.00" arrival="309.00" arrivalLane="54i_0" arrivalPos="10.00" arrivalSpeed="11.67" duration="115.00" routeLength="1015.10" waitSteps="9" timeLoss="38.54" rerouteNo="0" devices="tripinfo_up_71" vType="typeNS" speedFactor="1.00" vaporized=""/>
    <tripinfo id="up_73" depart="199.00" departLane="53o_0" departPos="5.10" departSpeed="0.00" departDelay="4.00" arrival="311.00" arrivalLane="54i_0" arrivalPos="10.00" arrivalSpeed="11.46" duration="112.00" routeLength="1015.10" waitSteps="6" timeLoss="35.58" rerouteNo="0" devices="tripinfo_up_73" vType="typeNS" speedFactor="1.00" vaporized=""/>
    <tripinfo id="up_75" depart="204.00" departLane="53o_0" departPos="5.10" departSpeed="0.00" departDelay="7.00" arrival="313.00" arrivalLane="54i_0" arrivalPos="10.00" arrivalSpeed="11.43" duration="109.00" routeLength="1015.10" waitSteps="4" timeLoss="32.47" rerouteNo="0" devices="tripinfo_up_75" vType="typeNS" speedFactor="1.00" vaporized=""/>
    <tripinfo id="up_80" depart="209.00" departLane="53o_0" departPos="5.10" departSpeed="0.00" departDelay="3.00" arrival="315.00" arrivalLane="54i_0" arrivalPos="10.00" arrivalSpeed="11.68" duration="106.00" routeLength="1015.10" waitSteps="0" timeLoss="29.26" rerouteNo="0" devices="tripinfo_up_80" vType="typeNS" speedFactor="1.00" vaporized=""/>
    <tripinfo id="up_83" depart="214.00" departLane="53o_0" departPos="5.10" departSpeed="0.00" departDelay="3.00" arrival="316.00" arrivalLane="54i_0" arrivalPos="10.00" arrivalSpeed="10.94" duration="102.00" routeLength="1015.10" waitSteps="0" timeLoss="25.90" rerouteNo="0" devices="tripinfo_up_83" vType="typeNS" speedFactor="1.00" vaporized=""/>
    <tripinfo id="up_87" depart="227.00" departLane="53o_0" departPos="5.10" departSpeed="0.00" departDelay="0.00" arrival="319.00" arrivalLane="54i_0" arrivalPos="10.00" arrivalSpeed="11.62" duration="92.00" routeLength="1015.10" waitSteps="0" timeLoss="15.26" rerouteNo="0" devices="tripinfo_up_87" vType="typeNS" speedFactor="1.00" vaporized=""/>
    <tripinfo id="down_90" depart="231.00" departLane="54o_0" departPos="5.10" departSpeed="0.00" departDelay="0.00" arrival="323.00" arrivalLane="53i_0" arrivalPos="10.00" arrivalSpeed="11.48" duration="92.00" routeLength="1015.10" waitSteps="0" timeLoss="15.23" rerouteNo="0" devices="tripinfo_down_90" vType="typeNS" speedFactor="1.00" vaporized=""/>