<?xml version="1.0" encoding="UTF-8"?>

<!-- generated on Mon Apr 30 16:37:53 2018 by SUMO Version 0.32.0
<?xml version="1.0" encoding="UTF-8"?>

<configuration xmlns:xsi="http://www.w3.org/2001/XMLSchema-instance" xsi:noNamespaceSchemaLocation="http://sumo.dlr.de/xsd/sumoConfiguration.xsd">

    <input>
        <net-file value="data/cross.net.xml"/>
        <route-files value="data/cross.rou.xml"/>
        <additional-files value="data/cross.det.xml"/>
    </input>

    <output>
        <summary-output value="data/cross.out"/>
        <tripinfo-output value="output/tripinfo87.xml"/>
    </output>

    <time>
        <begin value="0"/>
    </time>

    <report>
        <verbose value="true"/>
        <duration-log.statistics value="true"/>
        <no-step-log value="true"/>
    </report>

    <traci_server>
        <remote-port value="45386"/>
    </traci_server>

</configuration>
-->

<tripinfos xmlns:xsi="http://www.w3.org/2001/XMLSchema-instance" xsi:noNamespaceSchemaLocation="http://sumo.dlr.de/xsd/tripinfo_file.xsd">
    <tripinfo id="up_0" depart="0.00" departLane="53o_0" departPos="5.10" departSpeed="0.00" departDelay="0.00" arrival="92.00" arrivalLane="54i_0" arrivalPos="10.00" arrivalSpeed="11.69" duration="92.00" routeLength="1015.10" waitSteps="0" timeLoss="15.24" rerouteNo="0" devices="tripinfo_up_0" vType="typeNS" speedFactor="1.00" vaporized=""/>
    <tripinfo id="up_2" depart="5.00" departLane="53o_0" departPos="5.10" departSpeed="0.00" departDelay="1.00" arrival="96.00" arrivalLane="54i_0" arrivalPos="10.00" arrivalSpeed="11.39" duration="91.00" routeLength="1015.10" waitSteps="0" timeLoss="14.91" rerouteNo="0" devices="tripinfo_up_2" vType="typeNS" speedFactor="1.00" vaporized=""/>
    <tripinfo id="up_3" depart="10.00" departLane="53o_0" departPos="5.10" departSpeed="0.00" departDelay="5.00" arrival="101.00" arrivalLane="54i_0" arrivalPos="10.00" arrivalSpeed="11.84" duration="91.00" routeLength="1015.10" waitSteps="0" timeLoss="14.82" rerouteNo="0" devices="tripinfo_up_3" vType="typeNS" speedFactor="1.00" vaporized=""/>
    <tripinfo id="left_1" depart="1.00" departLane="52o_0" departPos="5.10" departSpeed="0.00" departDelay="0.00" arrival="116.00" arrivalLane="51i_0" arrivalPos="10.00" arrivalSpeed="10.86" duration="115.00" routeLength="1015.10" waitSteps="14" timeLoss="39.00" rerouteNo="0" devices="tripinfo_left_1" vType="typeWE" speedFactor="1.00" vaporized=""/>
    <tripinfo id="left_4" depart="8.00" departLane="52o_0" departPos="5.10" departSpeed="0.00" departDelay="0.00" arrival="118.00" arrivalLane="51i_0" arrivalPos="10.00" arrivalSpeed="11.49" duration="110.00" routeLength="1015.10" waitSteps="8" timeLoss="34.08" rerouteNo="0" devices="tripinfo_left_4" vType="typeWE" speedFactor="1.00" vaporized=""/>
    <tripinfo id="right_8" depart="25.00" departLane="51o_0" departPos="5.10" departSpeed="0.00" departDelay="0.00" arrival="118.00" arrivalLane="52i_0" arrivalPos="10.00" arrivalSpeed="11.50" duration="93.00" routeLength="1015.10" waitSteps="0" timeLoss="16.44" rerouteNo="0" devices="tripinfo_right_8" vType="typeWE" speedFactor="1.00" vaporized=""/>
    <tripinfo id="left_5" depart="15.00" departLane="52o_0" departPos="5.10" departSpeed="0.00" departDelay="0.00" arrival="120.00" arrivalLane="51i_0" arrivalPos="10.00" arrivalSpeed="11.02" duration="105.00" routeLength="1015.10" waitSteps="4" timeLoss="29.04" rerouteNo="0" devices="tripinfo_left_5" vType="typeWE" speedFactor="1.00" vaporized=""/>
    <tripinfo id="left_6" depart="20.00" departLane="52o_0" departPos="5.10" departSpeed="0.00" departDelay="4.00" arrival="122.00" arrivalLane="51i_0" arrivalPos="10.00" arrivalSpeed="11.28" duration="102.00" routeLength="1015.10" waitSteps="0" timeLoss="26.21" rerouteNo="0" devices="tripinfo_left_6" vType="typeWE" speedFactor="1.00" vaporized=""/>
    <tripinfo id="left_12" depart="39.00" departLane="52o_0" departPos="5.10" departSpeed="0.00" departDelay="0.00" arrival="130.00" arrivalLane="51i_0" arrivalPos="10.00" arrivalSpeed="11.39" duration="91.00" routeLength="1015.10" waitSteps="0" timeLoss="14.99" rerouteNo="0" devices="tripinfo_left_12" vType="typeWE" speedFactor="1.00" vaporized=""/>
    <tripinfo id="right_14" depart="46.00" departLane="51o_0" departPos="5.10" departSpeed="0.00" departDelay="0.00" arrival="137.00" arrivalLane="52i_0" arrivalPos="10.00" arrivalSpeed="11.43" duration="91.00" routeLength="1015.10" waitSteps="0" timeLoss="14.83" rerouteNo="0" devices="tripinfo_right_14" vType="typeWE" speedFactor="1.00" vaporized=""/>
    <tripinfo id="right_19" depart="57.00" departLane="51o_0" departPos="5.10" departSpeed="0.00" departDelay="0.00" arrival="147.00" arrivalLane="52i_0" arrivalPos="10.00" arrivalSpeed="11.13" duration="90.00" routeLength="1015.10" waitSteps="0" timeLoss="13.94" rerouteNo="0" devices="tripinfo_right_19" vType="typeWE" speedFactor="1.00" vaporized=""/>
    <tripinfo id="right_21" depart="62.00" departLane="51o_0" departPos="5.10" departSpeed="0.00" departDelay="2.00" arrival="152.00" arrivalLane="52i_0" arrivalPos="10.00" arrivalSpeed="11.78" duration="90.00" routeLength="1015.10" waitSteps="0" timeLoss="13.87" rerouteNo="0" devices="tripinfo_right_21" vType="typeWE" speedFactor="1.00" vaporized=""/>
    <tripinfo id="left_23" depart="65.00" departLane="52o_0" departPos="5.10" departSpeed="0.00" departDelay="0.00" arrival="157.00" arrivalLane="51i_0" arrivalPos="10.00" arrivalSpeed="11.64" duration="92.00" routeLength="1015.10" waitSteps="0" timeLoss="15.60" rerouteNo="0" devices="tripinfo_left_23" vType="typeWE" speedFactor="1.00" vaporized=""/>
    <tripinfo id="right_24" depart="70.00" departLane="51o_0" departPos="5.10" departSpeed="0.00" departDelay="0.00" arrival="161.00" arrivalLane="52i_0" arrivalPos="10.00" arrivalSpeed="11.30" duration="91.00" routeLength="1015.10" waitSteps="0" timeLoss="14.93" rerouteNo="0" devices="tripinfo_right_24" vType="typeWE" speedFactor="1.00" vaporized=""/>
    <tripinfo id="up_7" depart="23.00" departLane="53o_0" departPos="5.10" departSpeed="0.00" departDelay="0.00" arrival="176.00" arrivalLane="54i_0" arrivalPos="10.00" arrivalSpeed="11.59" duration="153.00" routeLength="1015.10" waitSteps="51" timeLoss="76.81" rerouteNo="0" devices="tripinfo_up_7" vType="typeNS" speedFactor="1.00" vaporized=""/>
    <tripinfo id="down_9" depart="26.00" departLane="54o_0" departPos="5.10" departSpeed="0.00" departDelay="0.00" arrival="177.00" arrivalLane="53i_0" arrivalPos="10.00" arrivalSpeed="11.39" duration="151.00" routeLength="1015.10" waitSteps="50" timeLoss="74.71" rerouteNo="0" devices="tripinfo_down_9" vType="typeNS" speedFactor="1.00" vaporized=""/>
    <tripinfo id="up_10" depart="32.00" departLane="53o_0" departPos="5.10" departSpeed="0.00" departDelay="0.00" arrival="179.00" arrivalLane="54i_0" arrivalPos="10.00" arrivalSpeed="11.24" duration="147.00" routeLength="1015.10" waitSteps="44" timeLoss="71.06" rerouteNo="0" devices="tripinfo_up_10" vType="typeNS" speedFactor="1.00" vaporized=""/>
    <tripinfo id="down_15" depart="48.00" departLane="54o_0" departPos="5.10" departSpeed="0.00" departDelay="0.00" arrival="179.00" arrivalLane="53i_0" arrivalPos="10.00" arrivalSpeed="11.25" duration="131.00" routeLength="1015.10" waitSteps="27" timeLoss="54.51" rerouteNo="0" devices="tripinfo_down_15" vType="typeNS" speedFactor="1.00" vaporized=""/>
    <tripinfo id="down_16" depart="53.00" departLane="54o_0" departPos="5.10" departSpeed="0.00" departDelay="3.00" arrival="180.00" arrivalLane="53i_0" arrivalPos="10.00" arrivalSpeed="11.50" duration="127.00" routeLength="1015.10" waitSteps="23" timeLoss="51.19" rerouteNo="0" devices="tripinfo_down_16" vType="typeNS" speedFactor="1.00" vaporized=""/>
    <tripinfo id="up_11" depart="37.00" departLane="53o_0" departPos="5.10" departSpeed="0.00" departDelay="1.00" arrival="181.00" arrivalLane="54i_0" arrivalPos="10.00" arrivalSpeed="11.48" duration="144.00" routeLength="1015.10" waitSteps="39" timeLoss="67.78" rerouteNo="0" devices="tripinfo_up_11" vType="typeNS" speedFactor="1.00" vaporized=""/>
    <tripinfo id="down_22" depart="61.00" departLane="54o_0" departPos="5.10" departSpeed="0.00" departDelay="0.00" arrival="182.00" arrivalLane="53i_0" arrivalPos="10.00" arrivalSpeed="11.51" duration="121.00" routeLength="1015.10" waitSteps="17" timeLoss="45.03" rerouteNo="0" devices="tripinfo_down_22" vType="typeNS" speedFactor="1.00" vaporized=""/>
    <tripinfo id="up_13" depart="42.00" departLane="53o_0" departPos="5.10" departSpeed="0.00" departDelay="2.00" arrival="183.00" arrivalLane="54i_0" arrivalPos="10.00" arrivalSpeed="11.66" duration="141.00" routeLength="1015.10" waitSteps="37" timeLoss="64.72" rerouteNo="0" devices="tripinfo_up_13" vType="typeNS" speedFactor="1.00" vaporized=""/>
    <tripinfo id="up_17" depart="55.00" departLane="53o_0" departPos="5.10" departSpeed="0.00" departDelay="0.00" arrival="185.00" arrivalLane="54i_0" arrivalPos="10.00" arrivalSpeed="11.42" duration="130.00" routeLength="1015.10" waitSteps="26" timeLoss="53.82" rerouteNo="0" devices="tripinfo_up_17" vType="typeNS" speedFactor="1.00" vaporized=""/>
    <tripinfo id="down_25" depart="71.00" departLane="54o_0" departPos="5.10" departSpeed="0.00" departDelay="0.00" arrival="185.00" arrivalLane="53i_0" arrivalPos="10.00" arrivalSpeed="11.73" duration="114.00" routeLength="1015.10" waitSteps="10" timeLoss="37.32" rerouteNo="0" devices="tripinfo_down_25" vType="typeNS" speedFactor="1.00" vaporized=""/>
    <tripinfo id="down_30" depart="87.00" departLane="54o_0" departPos="5.10" departSpeed="0.00" departDelay="0.00" arrival="186.00" arrivalLane="53i_0" arrivalPos="10.00" arrivalSpeed="10.87" duration="99.00" routeLength="1015.10" waitSteps="0" timeLoss="22.91" rerouteNo="0" devices="tripinfo_down_30" vType="typeNS" speedFactor="1.00" vaporized=""/>
    <tripinfo id="up_18" depart="60.00" departLane="53o_0" departPos="5.10" departSpeed="0.00" departDelay="4.00" arrival="187.00" arrivalLane="54i_0" arrivalPos="10.00" arrivalSpeed="11.30" duration="127.00" routeLength="1015.10" waitSteps="23" timeLoss="50.69" rerouteNo="0" devices="tripinfo_up_18" vType="typeNS" speedFactor="1.00" vaporized=""/>
    <tripinfo id="up_20" depart="65.00" departLane="53o_0" departPos="5.10" departSpeed="0.00" departDelay="7.00" arrival="190.00" arrivalLane="54i_0" arrivalPos="10.00" arrivalSpeed="11.65" duration="125.00" routeLength="1015.10" waitSteps="19" timeLoss="48.61" rerouteNo="0" devices="tripinfo_up_20" vType="typeNS" speedFactor="1.00" vaporized=""/>
    <tripinfo id="up_26" depart="71.00" departLane="53o_0" departPos="5.10" departSpeed="0.00" departDelay="0.00" arrival="192.00" arrivalLane="54i_0" arrivalPos="10.00" arrivalSpeed="11.65" duration="121.00" routeLength="1015.10" waitSteps="14" timeLoss="44.37" rerouteNo="0" devices="tripinfo_up_26" vType="typeNS" speedFactor="1.00" vaporized=""/>
    <tripinfo id="up_27" depart="76.00" departLane="53o_0" departPos="5.10" departSpeed="0.00" departDelay="0.00" arrival="193.00" arrivalLane="54i_0" arrivalPos="10.00" arrivalSpeed="11.38" duration="117.00" routeLength="1015.10" waitSteps="10" timeLoss="41.20" rerouteNo="0" devices="tripinfo_up_27" vType="typeNS" speedFactor="1.00" vaporized=""/>
    <tripinfo id="down_37" depart="103.00" departLane="54o_0" departPos="5.10" departSpeed="0.00" departDelay="0.00" arrival="194.00" arrivalLane="53i_0" arrivalPos="10.00" arrivalSpeed="11.35" duration="91.00" routeLength="1015.10" waitSteps="0" timeLoss="15.07" rerouteNo="0" devices="tripinfo_down_37" vType="typeNS" speedFactor="1.00" vaporized=""/>
    <tripinfo id="up_31" depart="89.00" departLane="53o_0" departPos="5.10" departSpeed="0.00" departDelay="0.00" arrival="195.00" arrivalLane="54i_0" arrivalPos="10.00" arrivalSpeed="11.72" duration="106.00" routeLength="1015.10" waitSteps="0" timeLoss="30.06" rerouteNo="0" devices="tripinfo_up_31" vType="typeNS" speedFactor="1.00" vaporized=""/>
    <tripinfo id="up_34" depart="96.00" departLane="53o_0" departPos="5.10" departSpeed="0.00" departDelay="0.00" arrival="197.00" arrivalLane="54i_0" arrivalPos="10.00" arrivalSpeed="11.45" duration="101.00" routeLength="1015.10" waitSteps="0" timeLoss="25.05" rerouteNo="0" devices="tripinfo_up_34" vType="typeNS" speedFactor="1.00" vaporized=""/>
    <tripinfo id="down_39" depart="109.00" departLane="54o_0" departPos="5.10" departSpeed="0.00" departDelay="0.00" arrival="201.00" arrivalLane="53i_0" arrivalPos="10.00" arrivalSpeed="11.41" duration="92.00" routeLength="1015.10" waitSteps="0" timeLoss="15.25" rerouteNo="0" devices="tripinfo_down_39" vType="typeNS" speedFactor="1.00" vaporized=""/>
    <tripinfo id="up_41" depart="112.00" departLane="53o_0" departPos="5.10" departSpeed="0.00" departDelay="0.00" arrival="202.00" arrivalLane="54i_0" arrivalPos="10.00" arrivalSpeed="11.56" duration="90.00" routeLength="1015.10" waitSteps="0" timeLoss="13.70" rerouteNo="0" devices="tripinfo_up_41" vType="typeNS" speedFactor="1.00" vaporized=""/>
    <tripinfo id="up_42" depart="118.00" departLane="53o_0" departPos="5.10" departSpeed="0.00" departDelay="0.00" arrival="209.00" arrivalLane="54i_0" arrivalPos="10.00" arrivalSpeed="11.80" duration="91.00" routeLength="1015.10" waitSteps="0" timeLoss="14.20" rerouteNo="0" devices="tripinfo_up_42" vType="typeNS" speedFactor="1.00" vaporized=""/>
    <tripinfo id="down_45" depart="124.00" departLane="54o_0" departPos="5.10" departSpeed="0.00" departDelay="0.00" arrival="215.00" arrivalLane="53i_0" arrivalPos="10.00" arrivalSpeed="11.21" duration="91.00" routeLength="1015.10" waitSteps="0" timeLoss="14.63" rerouteNo="0" devices="tripinfo_down_45" vType="typeNS" speedFactor="1.00" vaporized=""/>
    <tripinfo id="up_46" depart="125.00" departLane="53o_0" departPos="5.10" departSpeed="0.00" departDelay="0.00" arrival="216.00" arrivalLane="54i_0" arrivalPos="10.00" arrivalSpeed="11.57" duration="91.00" routeLength="1015.10" waitSteps="0" timeLoss="14.78" rerouteNo="0" devices="tripinfo_up_46" vType="typeNS" speedFactor="1.00" vaporized=""/>
    <tripinfo id="right_32" depart="90.00" departLane="51o_0" departPos="5.10" departSpeed="0.00" departDelay="0.00" arrival="236.00" arrivalLane="52i_0" arrivalPos="10.00" arrivalSpeed="11.06" duration="146.00" routeLength="1015.10" waitSteps="44" timeLoss="70.00" rerouteNo="0" devices="tripinfo_right_32" vType="typeWE" speedFactor="1.00" vaporized=""/>
    <tripinfo id="left_28" depart="77.00" departLane="52o_0" departPos="5.10" departSpeed="0.00" departDelay="0.00" arrival="236.00" arrivalLane="51i_0" arrivalPos="10.00" arrivalSpeed="11.83" duration="159.00" routeLength="1015.10" waitSteps="60" timeLoss="82.52" rerouteNo="0" devices="tripinfo_left_28" vType="typeWE" speedFactor="1.00" vaporized=""/>
    <tripinfo id="left_29" depart="85.00" departLane="52o_0" departPos="5.10" departSpeed="0.00" departDelay="0.00" arrival="238.00" arrivalLane="51i_0" arrivalPos="10.00" arrivalSpeed="11.43" duration="153.00" routeLength="1015.10" waitSteps="49" timeLoss="77.28" rerouteNo="0" devices="tripinfo_left_29" vType="typeWE" speedFactor="1.00" vaporized=""/>
    <tripinfo id="right_35" depart="99.00" departLane="51o_0" departPos="5.10" departSpeed="0.00" departDelay="0.00" arrival="238.00" arrivalLane="52i_0" arrivalPos="10.00" arrivalSpeed="11.26" duration="139.00" routeLength="1015.10" waitSteps="37" timeLoss="63.06" rerouteNo="0" devices="tripinfo_right_35" vType="typeWE" speedFactor="1.00" vaporized=""/>
    <tripinfo id="left_33" depart="96.00" departLane="52o_0" departPos="5.10" departSpeed="0.00" departDelay="0.00" arrival="241.00" arrivalLane="51i_0" arrivalPos="10.00" arrivalSpeed="11.55" duration="145.00" routeLength="1015.10" waitSteps="41" timeLoss="68.39" rerouteNo="0" devices="tripinfo_left_33" vType="typeWE" speedFactor="1.00" vaporized=""/>
    <tripinfo id="right_36" depart="104.00" departLane="51o_0" departPos="5.10" departSpeed="0.00" departDelay="4.00" arrival="241.00" arrivalLane="52i_0" arrivalPos="10.00" arrivalSpeed="11.62" duration="137.00" routeLength="1015.10" waitSteps="34" timeLoss="60.60" rerouteNo="0" devices="tripinfo_right_36" vType="typeWE" speedFactor="1.00" vaporized=""/>
    <tripinfo id="left_43" depart="119.00" departLane="52o_0" departPos="5.10" departSpeed="0.00" departDelay="0.00" arrival="242.00" arrivalLane="51i_0" arrivalPos="10.00" arrivalSpeed="11.31" duration="123.00" routeLength="1015.10" waitSteps="19" timeLoss="47.20" rerouteNo="0" devices="tripinfo_left_43" vType="typeWE" speedFactor="1.00" vaporized=""/>
    <tripinfo id="right_38" depart="109.00" departLane="51o_0" departPos="5.10" departSpeed="0.00" departDelay="5.00" arrival="243.00" arrivalLane="52i_0" arrivalPos="10.00" arrivalSpeed="11.49" duration="134.00" routeLength="1015.10" waitSteps="30" timeLoss="57.57" rerouteNo="0" devices="tripinfo_right_38" vType="typeWE" speedFactor="1.00" vaporized=""/>
    <tripinfo id="left_53" depart="142.00" departLane="52o_0" departPos="5.10" departSpeed="0.00" departDelay="0.00" arrival="244.00" arrivalLane="51i_0" arrivalPos="10.00" arrivalSpeed="11.49" duration="102.00" routeLength="1015.10" waitSteps="0" timeLoss="26.19" rerouteNo="0" devices="tripinfo_left_53" vType="typeWE" speedFactor="1.00" vaporized=""/>
    <tripinfo id="right_40" depart="114.00" departLane="51o_0" departPos="5.10" departSpeed="0.00" departDelay="3.00" arrival="245.00" arrivalLane="52i_0" arrivalPos="10.00" arrivalSpeed="11.36" duration="131.00" routeLength="1015.10" waitSteps="27" timeLoss="54.88" rerouteNo="0" devices="tripinfo_right_40" vType="typeWE" speedFactor="1.00" vaporized=""/>
    <tripinfo id="left_56" depart="155.00" departLane="52o_0" departPos="5.10" departSpeed="0.00" departDelay="0.00" arrival="247.00" arrivalLane="51i_0" arrivalPos="10.00" arrivalSpeed="11.69" duration="92.00" routeLength="1015.10" waitSteps="0" timeLoss="15.54" rerouteNo="0" devices="tripinfo_left_56" vType="typeWE" speedFactor="1.00" vaporized=""/>
    <tripinfo id="right_44" depart="122.00" departLane="51o_0" departPos="5.10" departSpeed="0.00" departDelay="1.00" arrival="247.00" arrivalLane="52i_0" arrivalPos="10.00" arrivalSpeed="11.54" duration="125.00" routeLength="1015.10" waitSteps="20" timeLoss="48.97" rerouteNo="0" devices="tripinfo_right_44" vType="typeWE" speedFactor="1.00" vaporized=""/>
    <tripinfo id="right_47" depart="132.00" departLane="51o_0" departPos="5.10" departSpeed="0.00" departDelay="0.00" arrival="249.00" arrivalLane="52i_0" arrivalPos="10.00" arrivalSpeed="11.54" duration="117.00" routeLength="1015.10" waitSteps="11" timeLoss="40.95" rerouteNo="0" devices="tripinfo_right_47" vType="typeWE" speedFactor="1.00" vaporized=""/>
    <tripinfo id="left_58" depart="161.00" departLane="52o_0" departPos="5.10" departSpeed="0.00" departDelay="0.00" arrival="251.00" arrivalLane="51i_0" arrivalPos="10.00" arrivalSpeed="11.50" duration="90.00" routeLength="1015.10" waitSteps="0" timeLoss="14.03" rerouteNo="0" devices="tripinfo_left_58" vType="typeWE" speedFactor="1.00" vaporized=""/>
    <tripinfo id="right_48" depart="137.00" departLane="51o_0" departPos="5.10" departSpeed="0.00" departDelay="1.00" arrival="251.00" arrivalLane="52i_0" arrivalPos="10.00" arrivalSpeed="11.56" duration="114.00" routeLength="1015.10" waitSteps="8" timeLoss="37.77" rerouteNo="0" devices="tripinfo_right_48" vType="typeWE" speedFactor="1.00" vaporized=""/>
    <tripinfo id="right_52" depart="142.00" departLane="51o_0" departPos="5.10" departSpeed="0.00" departDelay="0.00" arrival="253.00" arrivalLane="52i_0" arrivalPos="10.00" arrivalSpeed="11.41" duration="111.00" routeLength="1015.10" waitSteps="4" timeLoss="34.49" rerouteNo="0" devices="tripinfo_right_52" vType="typeWE" speedFactor="1.00" vaporized=""/>
    <tripinfo id="right_55" depart="149.00" departLane="51o_0" departPos="5.10" departSpeed="0.00" departDelay="0.00" arrival="255.00" arrivalLane="52i_0" arrivalPos="10.00" arrivalSpeed="11.42" duration="106.00" routeLength="1015.10" waitSteps="0" timeLoss="29.29" rerouteNo="0" devices="tripinfo_right_55" vType="typeWE" speedFactor="1.00" vaporized=""/>
    <tripinfo id="right_57" depart="157.00" departLane="51o_0" departPos="5.10" departSpeed="0.00" departDelay="1.00" arrival="256.00" arrivalLane="52i_0" arrivalPos="10.00" arrivalSpeed="11.70" duration="99.00" routeLength="1015.10" waitSteps="0" timeLoss="23.14" rerouteNo="0" devices="tripinfo_right_57" vType="typeWE" speedFactor="1.00" vaporized=""/>
    <tripinfo id="right_60" depart="181.00" departLane="51o_0" departPos="5.10" departSpeed="0.00" departDelay="0.00" arrival="273.00" arrivalLane="52i_0" arrivalPos="10.00" arrivalSpeed="11.55" duration="92.00" routeLength="1015.10" waitSteps="0" timeLoss="15.38" rerouteNo="0" devices="tripinfo_right_60" vType="typeWE" speedFactor="1.00" vaporized=""/>
    <tripinfo id="left_63" depart="188.00" departLane="52o_0" departPos="5.10" departSpeed="0.00" departDelay="0.00" arrival="280.00" arrivalLane="51i_0" arrivalPos="10.00" arrivalSpeed="11.72" duration="92.00" routeLength="1015.10" waitSteps="0" timeLoss="15.64" rerouteNo="0" devices="tripinfo_left_63" vType="typeWE" speedFactor="1.00" vaporized=""/>
    <tripinfo id="down_51" depart="140.00" departLane="54o_0" departPos="5.10" departSpeed="0.00" departDelay="0.00" arrival="296.00" arrivalLane="53i_0" arrivalPos="10.00" arrivalSpeed="11.56" duration="156.00" routeLength="1015.10" waitSteps="55" timeLoss="79.67" rerouteNo="0" devices="tripinfo_down_51" vType="typeNS" speedFactor="1.00" vaporized=""/>
    <tripinfo id="up_49" depart="138.00" departLane="53o_0" departPos="5.10" departSpeed="0.00" departDelay="0.00" arrival="297.00" arrivalLane="54i_0" arrivalPos="10.00" arrivalSpeed="11.16" duration="159.00" routeLength="1015.10" waitSteps="56" timeLoss="82.69" rerouteNo="0" devices="tripinfo_up_49" vType="typeNS" speedFactor="1.00" vaporized=""/>
    <tripinfo id="up_50" depart="143.00" departLane="53o_0" departPos="5.10" departSpeed="0.00" departDelay="4.00" arrival="299.00" arrivalLane="54i_0" arrivalPos="10.00" arrivalSpeed="11.58" duration="156.00" routeLength="1015.10" waitSteps="53" timeLoss="79.76" rerouteNo="0" devices="tripinfo_up_50" vType="typeNS" speedFactor="1.00" vaporized=""/>
    <tripinfo id="down_54" depart="147.00" departLane="54o_0" departPos="5.10" departSpeed="0.00" departDelay="0.00" arrival="299.00" arrivalLane="53i_0" arrivalPos="10.00" arrivalSpeed="11.81" duration="152.00" routeLength="1015.10" waitSteps="49" timeLoss="75.82" rerouteNo="0" devices="tripinfo_down_54" vType="typeNS" speedFactor="1.00" vaporized=""/>
    <tripinfo id="up_61" depart="182.00" departLane="53o_0" departPos="5.10" departSpeed="0.00" departDelay="1.00" arrival="301.00" arrivalLane="54i_0" arrivalPos="10.00" arrivalSpeed="11.56" duration="119.00" routeLength="1015.10" waitSteps="16" timeLoss="42.65" rerouteNo="0" devices="tripinfo_up_61" vType="typeNS" speedFactor="1.00" vaporized=""/>
    <tripinfo id="down_59" depart="163.00" departLane="54o_0" departPos="5.10" departSpeed="0.00" departDelay="0.00" arrival="301.00" arrivalLane="53i_0" arrivalPos="10.00" arrivalSpeed="11.23" duration="138.00" routeLength="1015.10" waitSteps="35" timeLoss="61.84" rerouteNo="0" devices="tripinfo_down_59" vType="typeNS" speedFactor="1.00" vaporized=""/>
    <tripinfo id="up_62" depart="187.00" departLane="53o_0" departPos="5.10" departSpeed="0.00" departDelay="1.00" arrival="303.00" arrivalLane="54i_0" arrivalPos="10.00" arrivalSpeed="11.57" duration="116.00" routeLength="1015.10" waitSteps="11" timeLoss="39.60" rerouteNo="0" devices="tripinfo_up_62" vType="typeNS" speedFactor="1.00" vaporized=""/>
    <tripinfo id="down_64" depart="193.00" departLane="54o_0" departPos="5.10" departSpeed="0.00" departDelay="2.00" arrival="303.00" arrivalLane="53i_0" arrivalPos="10.00" arrivalSpeed="11.47" duration="110.00" routeLength="1015.10" waitSteps="7" timeLoss="33.97" rerouteNo="0" devices="tripinfo_down_64" vType="typeNS" speedFactor="1.00" vaporized=""/>
    <tripinfo id="up_67" depart="201.00" departLane="53o_0" departPos="5.10" departSpeed="0.00" departDelay="1.00" arrival="305.00" arrivalLane="54i_0" arrivalPos="10.00" arrivalSpeed="11.51" duration="104.00" routeLength="1015.10" waitSteps="0" timeLoss="27.71" rerouteNo="0" devices="tripinfo_up_67" vType="typeNS" speedFactor="1.00" vaporized=""/>
    <tripinfo id="down_65" depart="198.00" departLane="54o_0" departPos="5.10" departSpeed="0.00" departDelay="4.00" arrival="305.00" arrivalLane="53i_0" arrivalPos="10.00" arrivalSpeed="11.57" duration="107.00" routeLength="1015.10" waitSteps="3" timeLoss="30.69" rerouteNo="0" devices="tripinfo_down_65" vType="typeNS" speedFactor="1.00" vaporized=""/>
    <tripinfo id="down_66" depart="203.00" departLane="54o_0" departPos="5.10" departSpeed="0.00" departDelay="3.00" arrival="307.00" arrivalLane="53i_0" arrivalPos="10.00" arrivalSpeed="11.51" duration="104.00" routeLength="1015.10" waitSteps="0" timeLoss="27.88" rerouteNo="0" devices="tripinfo_down_66" vType="typeNS" speedFactor="1.00" vaporized=""/>
    <tripinfo id="up_73" depart="220.00" departLane="53o_0" departPos="5.10" departSpeed="0.00" departDelay="0.00" arrival="312.00" arrivalLane="54i_0" arrivalPos="10.00" arrivalSpeed="11.69" duration="92.00" routeLength="1015.10" waitSteps="0" timeLoss="15.71" rerouteNo="0" devices="tripinfo_up_73" vType="typeNS" speedFactor="1.00" vaporized=""/>
    <tripinfo id="up_75" depart="226.00" departLane="53o_0" departPos="5.10" departSpeed="0.00" departDelay="1.00" arrival="317.00" arrivalLane="54i_0" arrivalPos="10.00" arrivalSpeed="11.58" duration="91.00" routeLength="1015.10" waitSteps="0" timeLoss="14.92" rerouteNo="0" devices="tripinfo_up_75" vType="typeNS" speedFactor="1.00" vaporized=""/>
    <tripinfo id="up_76" depart="231.00" departLane="53o_0" departPos="5.10" departSpeed="0.00" departDelay="2.00" arrival="323.00" arrivalLane="54i_0" arrivalPos="10.00" arrivalSpeed="11.14" duration="92.00" routeLength="1015.10" waitSteps="0" timeLoss="15.34" rerouteNo="0" devices="tripinfo_up_76" vType="typeNS" speedFactor="1.00" vaporized=""/>
    <tripinfo id="down_78" depart="235.00" departLane="54o_0" departPos="5.10" departSpeed="0.00" departDelay="0.00" arrival="327.00" arrivalLane="53i_0" arrivalPos="10.00" arrivalSpeed="11.46" duration="92.00" routeLength="1015.10" waitSteps="0" timeLoss="15.39" rerouteNo="0" devices="tripinfo_down_78" vType="typeNS" speedFactor="1.00" vaporized=""/>
    <tripinfo id="up_80" depart="238.00" departLane="53o_0" departPos="5.10" departSpeed="0.00" departDelay="0.00" arrival="329.00" arrivalLane="54i_0" arrivalPos="10.00" arrivalSpeed="11.43" duration="91.00" routeLength="1015.10" waitSteps="0" timeLoss="14.69" rerouteNo="0" devices="tripinfo_up_80" vType="typeNS" speedFactor="1.00" vaporized=""/>
    <tripinfo id="down_84" depart="245.00" departLane="54o_0" departPos="5.10" departSpeed="0.00" departDelay="0.00" arrival="337.00" arrivalLane="53i_0" arrivalPos="10.00" arrivalSpeed="11.71" duration="92.00" routeLength="1015.10" waitSteps="0" timeLoss="15.20" rerouteNo="0" devices="tripinfo_down_84" vType="typeNS" speedFactor="1.00" vaporized=""/>
    <tripinfo id="up_85" depart="248.00" departLane="53o_0" departPos="5.10" departSpeed="0.00" departDelay="0.00" arrival="339.00" arrivalLane="54i_0" arrivalPos="10.00" arrivalSpeed="11.44" duration="91.00" routeLength="1015.10" waitSteps="0" timeLoss="14.71" rerouteNo="0" devices="tripinfo_up_85" vType="typeNS" speedFactor="1.00" vaporized=""/>
    <tripinfo id="left_69" depart="207.00" departLane="52o_0" departPos="5.10" departSpeed="0.00" departDelay="0.00" arrival="356.00" arrivalLane="51i_0" arrivalPos="10.00" arrivalSpeed="11.72" duration="149.00" routeLength="1015.10" waitSteps="46" timeLoss="72.91" rerouteNo="0" devices="tripinfo_left_69" vType="typeWE" speedFactor="1.00" vaporized=""/>
    <tripinfo id="right_68" depart="207.00" departLane="51o_0" departPos="5.10" departSpeed="0.00" departDelay="0.00" arrival="357.00" arrivalLane="52i_0" arrivalPos="10.00" arrivalSpeed="11.51" duration="150.00" routeLength="1015.10" waitSteps="46" timeLoss="74.22" rerouteNo="0" devices="tripinfo_right_68" vType="typeWE" speedFactor="1.00" vaporized=""/>
    <tripinfo id="left_70" depart="213.00" departLane="52o_0" departPos="5.10" departSpeed="0.00" departDelay="2.00" arrival="358.00" arrivalLane="51i_0" arrivalPos="10.00" arrivalSpeed="11.45" duration="145.00" routeLength="1015.10" waitSteps="44" timeLoss="69.10" rerouteNo="0" devices="tripinfo_left_70" vType="typeWE" speedFactor="1.00" vaporized=""/>
    <tripinfo id="left_71" depart="217.00" departLane="52o_0" departPos="5.10" departSpeed="0.00" departDelay="2.00" arrival="360.00" arrivalLane="51i_0" arrivalPos="10.00" arrivalSpeed="11.63" duration="143.00" routeLength="1015.10" waitSteps="39" timeLoss="66.81" rerouteNo="0" devices="tripinfo_left_71" vType="typeWE" speedFactor="1.00" vaporized=""/>
    <tripinfo id="right_79" depart="238.00" departLane="51o_0" departPos="5.10" departSpeed="0.00" departDelay="0.00" arrival="360.00" arrivalLane="52i_0" arrivalPos="10.00" arrivalSpeed="11.60" duration="122.00" routeLength="1015.10" waitSteps="17" timeLoss="45.57" rerouteNo="0" devices="tripinfo_right_79" vType="typeWE" speedFactor="1.00" vaporized=""/>
    <tripinfo id="right_81" depart="244.00" departLane="51o_0" departPos="5.10" departSpeed="0.00" departDelay="5.00" arrival="362.00" arrivalLane="52i_0" arrivalPos="10.00" arrivalSpeed="11.28" duration="118.00" routeLength="1015.10" waitSteps="13" timeLoss="41.68" rerouteNo="0" devices="tripinfo_right_81" vType="typeWE" speedFactor="1.00" vaporized=""/>