<?xml version="1.0" encoding="UTF-8"?>

<!-- generated on Mon Apr 30 16:25:16 2018 by SUMO Version 0.32.0
<?xml version="1.0" encoding="UTF-8"?>

<configuration xmlns:xsi="http://www.w3.org/2001/XMLSchema-instance" xsi:noNamespaceSchemaLocation="http://sumo.dlr.de/xsd/sumoConfiguration.xsd">

    <input>
        <net-file value="data/cross.net.xml"/>
        <route-files value="data/cross.rou.xml"/>
        <additional-files value="data/cross.det.xml"/>
    </input>

    <output>
        <summary-output value="data/cross.out"/>
        <tripinfo-output value="output/tripinfo278.xml"/>
    </output>

    <time>
        <begin value="0"/>
    </time>

    <report>
        <verbose value="true"/>
        <duration-log.statistics value="true"/>
        <no-step-log value="true"/>
    </report>

    <traci_server>
        <remote-port value="47377"/>
    </traci_server>

</configuration>
-->

<tripinfos xmlns:xsi="http://www.w3.org/2001/XMLSchema-instance" xsi:noNamespaceSchemaLocation="http://sumo.dlr.de/xsd/tripinfo_file.xsd">
    <tripinfo id="down_1" depart="10.00" departLane="54o_0" departPos="5.10" departSpeed="0.00" departDelay="0.00" arrival="101.00" arrivalLane="53i_0" arrivalPos="10.00" arrivalSpeed="11.35" duration="91.00" routeLength="1015.10" waitSteps="0" timeLoss="14.97" rerouteNo="0" devices="tripinfo_down_1" vType="typeNS" speedFactor="1.00" vaporized=""/>
    <tripinfo id="left_3" depart="17.00" departLane="52o_0" departPos="5.10" departSpeed="0.00" departDelay="0.00" arrival="108.00" arrivalLane="51i_0" arrivalPos="10.00" arrivalSpeed="11.08" duration="91.00" routeLength="1015.10" waitSteps="0" timeLoss="14.87" rerouteNo="0" devices="tripinfo_left_3" vType="typeWE" speedFactor="1.00" vaporized=""/>
    <tripinfo id="left_6" depart="23.00" departLane="52o_0" departPos="5.10" departSpeed="0.00" departDelay="0.00" arrival="114.00" arrivalLane="51i_0" arrivalPos="10.00" arrivalSpeed="11.63" duration="91.00" routeLength="1015.10" waitSteps="0" timeLoss="14.44" rerouteNo="0" devices="tripinfo_left_6" vType="typeWE" speedFactor="1.00" vaporized=""/>
    <tripinfo id="right_0" depart="4.00" departLane="51o_0" departPos="5.10" departSpeed="0.00" departDelay="0.00" arrival="117.00" arrivalLane="52i_0" arrivalPos="10.00" arrivalSpeed="11.53" duration="113.00" routeLength="1015.10" waitSteps="11" timeLoss="36.84" rerouteNo="0" devices="tripinfo_right_0" vType="typeWE" speedFactor="1.00" vaporized=""/>
    <tripinfo id="left_8" depart="28.00" departLane="52o_0" departPos="5.10" departSpeed="0.00" departDelay="3.00" arrival="119.00" arrivalLane="51i_0" arrivalPos="10.00" arrivalSpeed="11.85" duration="91.00" routeLength="1015.10" waitSteps="0" timeLoss="14.68" rerouteNo="0" devices="tripinfo_left_8" vType="typeWE" speedFactor="1.00" vaporized=""/>
    <tripinfo id="right_2" depart="11.00" departLane="51o_0" departPos="5.10" departSpeed="0.00" departDelay="0.00" arrival="119.00" arrivalLane="52i_0" arrivalPos="10.00" arrivalSpeed="11.58" duration="108.00" routeLength="1015.10" waitSteps="5" timeLoss="31.73" rerouteNo="0" devices="tripinfo_right_2" vType="typeWE" speedFactor="1.00" vaporized=""/>
    <tripinfo id="right_9" depart="26.00" departLane="51o_0" departPos="5.10" departSpeed="0.00" departDelay="0.00" arrival="121.00" arrivalLane="52i_0" arrivalPos="10.00" arrivalSpeed="11.40" duration="95.00" routeLength="1015.10" waitSteps="0" timeLoss="18.37" rerouteNo="0" devices="tripinfo_right_9" vType="typeWE" speedFactor="1.00" vaporized=""/>
    <tripinfo id="left_11" depart="33.00" departLane="52o_0" departPos="5.10" departSpeed="0.00" departDelay="4.00" arrival="124.00" arrivalLane="51i_0" arrivalPos="10.00" arrivalSpeed="11.47" duration="91.00" routeLength="1015.10" waitSteps="0" timeLoss="14.71" rerouteNo="0" devices="tripinfo_left_11" vType="typeWE" speedFactor="1.00" vaporized=""/>
    <tripinfo id="left_15" depart="38.00" departLane="52o_0" departPos="5.10" departSpeed="0.00" departDelay="1.00" arrival="130.00" arrivalLane="51i_0" arrivalPos="10.00" arrivalSpeed="11.54" duration="92.00" routeLength="1015.10" waitSteps="0" timeLoss="15.31" rerouteNo="0" devices="tripinfo_left_15" vType="typeWE" speedFactor="1.00" vaporized=""/>
    <tripinfo id="right_17" depart="46.00" departLane="51o_0" departPos="5.10" departSpeed="0.00" departDelay="0.00" arrival="138.00" arrivalLane="52i_0" arrivalPos="10.00" arrivalSpeed="11.48" duration="92.00" routeLength="1015.10" waitSteps="0" timeLoss="15.72" rerouteNo="0" devices="tripinfo_right_17" vType="typeWE" speedFactor="1.00" vaporized=""/>
    <tripinfo id="left_19" depart="48.00" departLane="52o_0" departPos="5.10" departSpeed="0.00" departDelay="0.00" arrival="139.00" arrivalLane="51i_0" arrivalPos="10.00" arrivalSpeed="11.42" duration="91.00" routeLength="1015.10" waitSteps="0" timeLoss="14.36" rerouteNo="0" devices="tripinfo_left_19" vType="typeWE" speedFactor="1.00" vaporized=""/>
    <tripinfo id="left_20" depart="53.00" departLane="52o_0" departPos="5.10" departSpeed="0.00" departDelay="3.00" arrival="144.00" arrivalLane="51i_0" arrivalPos="10.00" arrivalSpeed="11.49" duration="91.00" routeLength="1015.10" waitSteps="0" timeLoss="15.02" rerouteNo="0" devices="tripinfo_left_20" vType="typeWE" speedFactor="1.00" vaporized=""/>
    <tripinfo id="right_18" depart="51.00" departLane="51o_0" departPos="5.10" departSpeed="0.00" departDelay="3.00" arrival="144.00" arrivalLane="52i_0" arrivalPos="10.00" arrivalSpeed="11.49" duration="93.00" routeLength="1015.10" waitSteps="0" timeLoss="16.19" rerouteNo="0" devices="tripinfo_right_18" vType="typeWE" speedFactor="1.00" vaporized=""/>
    <tripinfo id="right_21" depart="56.00" departLane="51o_0" departPos="5.10" departSpeed="0.00" departDelay="4.00" arrival="148.00" arrivalLane="52i_0" arrivalPos="10.00" arrivalSpeed="11.48" duration="92.00" routeLength="1015.10" waitSteps="0" timeLoss="15.36" rerouteNo="0" devices="tripinfo_right_21" vType="typeWE" speedFactor="1.00" vaporized=""/>
    <tripinfo id="right_22" depart="61.00" departLane="51o_0" departPos="5.10" departSpeed="0.00" departDelay="4.00" arrival="152.00" arrivalLane="52i_0" arrivalPos="10.00" arrivalSpeed="11.04" duration="91.00" routeLength="1015.10" waitSteps="0" timeLoss="14.85" rerouteNo="0" devices="tripinfo_right_22" vType="typeWE" speedFactor="1.00" vaporized=""/>
    <tripinfo id="right_23" depart="66.00" departLane="51o_0" departPos="5.10" departSpeed="0.00" departDelay="8.00" arrival="157.00" arrivalLane="52i_0" arrivalPos="10.00" arrivalSpeed="11.44" duration="91.00" routeLength="1015.10" waitSteps="0" timeLoss="14.52" rerouteNo="0" devices="tripinfo_right_23" vType="typeWE" speedFactor="1.00" vaporized=""/>
    <tripinfo id="right_24" depart="71.00" departLane="51o_0" departPos="5.10" departSpeed="0.00" departDelay="6.00" arrival="162.00" arrivalLane="52i_0" arrivalPos="10.00" arrivalSpeed="10.99" duration="91.00" routeLength="1015.10" waitSteps="0" timeLoss="14.82" rerouteNo="0" devices="tripinfo_right_24" vType="typeWE" speedFactor="1.00" vaporized=""/>
    <tripinfo id="down_4" depart="18.00" departLane="54o_0" departPos="5.10" departSpeed="0.00" departDelay="0.00" arrival="176.00" arrivalLane="53i_0" arrivalPos="10.00" arrivalSpeed="11.30" duration="158.00" routeLength="1015.10" waitSteps="55" timeLoss="82.07" rerouteNo="0" devices="tripinfo_down_4" vType="typeNS" speedFactor="1.00" vaporized=""/>
    <tripinfo id="up_7" depart="23.00" departLane="53o_0" departPos="5.10" departSpeed="0.00" departDelay="0.00" arrival="176.00" arrivalLane="54i_0" arrivalPos="10.00" arrivalSpeed="11.48" duration="153.00" routeLength="1015.10" waitSteps="51" timeLoss="77.13" rerouteNo="0" devices="tripinfo_up_7" vType="typeNS" speedFactor="1.00" vaporized=""/>
    <tripinfo id="down_5" depart="23.00" departLane="54o_0" departPos="5.10" departSpeed="0.00" departDelay="3.00" arrival="178.00" arrivalLane="53i_0" arrivalPos="10.00" arrivalSpeed="11.59" duration="155.00" routeLength="1015.10" waitSteps="52" timeLoss="79.06" rerouteNo="0" devices="tripinfo_down_5" vType="typeNS" speedFactor="1.00" vaporized=""/>
    <tripinfo id="up_13" depart="32.00" departLane="53o_0" departPos="5.10" departSpeed="0.00" departDelay="0.00" arrival="179.00" arrivalLane="54i_0" arrivalPos="10.00" arrivalSpeed="11.32" duration="147.00" routeLength="1015.10" waitSteps="44" timeLoss="70.48" rerouteNo="0" devices="tripinfo_up_13" vType="typeNS" speedFactor="1.00" vaporized=""/>
    <tripinfo id="down_10" depart="28.00" departLane="54o_0" departPos="5.10" departSpeed="0.00" departDelay="1.00" arrival="181.00" arrivalLane="53i_0" arrivalPos="10.00" arrivalSpeed="11.75" duration="153.00" routeLength="1015.10" waitSteps="49" timeLoss="76.48" rerouteNo="0" devices="tripinfo_down_10" vType="typeNS" speedFactor="1.00" vaporized=""/>
    <tripinfo id="up_14" depart="37.00" departLane="53o_0" departPos="5.10" departSpeed="0.00" departDelay="1.00" arrival="181.00" arrivalLane="54i_0" arrivalPos="10.00" arrivalSpeed="11.54" duration="144.00" routeLength="1015.10" waitSteps="40" timeLoss="68.14" rerouteNo="0" devices="tripinfo_up_14" vType="typeNS" speedFactor="1.00" vaporized=""/>
    <tripinfo id="down_12" depart="33.00" departLane="54o_0" departPos="5.10" departSpeed="0.00" departDelay="3.00" arrival="183.00" arrivalLane="53i_0" arrivalPos="10.00" arrivalSpeed="11.81" duration="150.00" routeLength="1015.10" waitSteps="46" timeLoss="73.80" rerouteNo="0" devices="tripinfo_down_12" vType="typeNS" speedFactor="1.00" vaporized=""/>
    <tripinfo id="up_16" depart="44.00" departLane="53o_0" departPos="5.10" departSpeed="0.00" departDelay="0.00" arrival="183.00" arrivalLane="54i_0" arrivalPos="10.00" arrivalSpeed="11.52" duration="139.00" routeLength="1015.10" waitSteps="36" timeLoss="63.05" rerouteNo="0" devices="tripinfo_up_16" vType="typeNS" speedFactor="1.00" vaporized=""/>
    <tripinfo id="down_26" depart="78.00" departLane="54o_0" departPos="5.10" departSpeed="0.00" departDelay="0.00" arrival="185.00" arrivalLane="53i_0" arrivalPos="10.00" arrivalSpeed="11.51" duration="107.00" routeLength="1015.10" waitSteps="1" timeLoss="30.63" rerouteNo="0" devices="tripinfo_down_26" vType="typeNS" speedFactor="1.00" vaporized=""/>
    <tripinfo id="up_25" depart="76.00" departLane="53o_0" departPos="5.10" departSpeed="0.00" departDelay="0.00" arrival="185.00" arrivalLane="54i_0" arrivalPos="10.00" arrivalSpeed="11.37" duration="109.00" routeLength="1015.10" waitSteps="3" timeLoss="32.80" rerouteNo="0" devices="tripinfo_up_25" vType="typeNS" speedFactor="1.00" vaporized=""/>
    <tripinfo id="down_27" depart="90.00" departLane="54o_0" departPos="5.10" departSpeed="0.00" departDelay="0.00" arrival="187.00" arrivalLane="53i_0" arrivalPos="10.00" arrivalSpeed="11.18" duration="97.00" routeLength="1015.10" waitSteps="0" timeLoss="20.46" rerouteNo="0" devices="tripinfo_down_27" vType="typeNS" speedFactor="1.00" vaporized=""/>
    <tripinfo id="down_28" depart="95.00" departLane="54o_0" departPos="5.10" departSpeed="0.00" departDelay="4.00" arrival="188.00" arrivalLane="53i_0" arrivalPos="10.00" arrivalSpeed="11.03" duration="93.00" routeLength="1015.10" waitSteps="0" timeLoss="16.83" rerouteNo="0" devices="tripinfo_down_28" vType="typeNS" speedFactor="1.00" vaporized=""/>
    <tripinfo id="up_30" depart="106.00" departLane="53o_0" departPos="5.10" departSpeed="0.00" departDelay="0.00" arrival="198.00" arrivalLane="54i_0" arrivalPos="10.00" arrivalSpeed="11.56" duration="92.00" routeLength="1015.10" waitSteps="0" timeLoss="15.19" rerouteNo="0" devices="tripinfo_up_30" vType="typeNS" speedFactor="1.00" vaporized=""/>
    <tripinfo id="down_32" depart="111.00" departLane="54o_0" departPos="5.10" departSpeed="0.00" departDelay="0.00" arrival="202.00" arrivalLane="53i_0" arrivalPos="10.00" arrivalSpeed="11.85" duration="91.00" routeLength="1015.10" waitSteps="0" timeLoss="14.13" rerouteNo="0" devices="tripinfo_down_32" vType="typeNS" speedFactor="1.00" vaporized=""/>
    <tripinfo id="down_33" depart="116.00" departLane="54o_0" departPos="5.10" departSpeed="0.00" departDelay="2.00" arrival="207.00" arrivalLane="53i_0" arrivalPos="10.00" arrivalSpeed="11.41" duration="91.00" routeLength="1015.10" waitSteps="0" timeLoss="15.02" rerouteNo="0" devices="tripinfo_down_33" vType="typeNS" speedFactor="1.00" vaporized=""/>
    <tripinfo id="up_39" depart="128.00" departLane="53o_0" departPos="5.10" departSpeed="0.00" departDelay="0.00" arrival="219.00" arrivalLane="54i_0" arrivalPos="10.00" arrivalSpeed="11.39" duration="91.00" routeLength="1015.10" waitSteps="0" timeLoss="14.63" rerouteNo="0" devices="tripinfo_up_39" vType="typeNS" speedFactor="1.00" vaporized=""/>
    <tripinfo id="down_38" depart="128.00" departLane="54o_0" departPos="5.10" departSpeed="0.00" departDelay="0.00" arrival="220.00" arrivalLane="53i_0" arrivalPos="10.00" arrivalSpeed="11.39" duration="92.00" routeLength="1015.10" waitSteps="0" timeLoss="15.40" rerouteNo="0" devices="tripinfo_down_38" vType="typeNS" speedFactor="1.00" vaporized=""/>
    <tripinfo id="down_42" depart="133.00" departLane="54o_0" departPos="5.10" departSpeed="0.00" departDelay="0.00" arrival="224.00" arrivalLane="53i_0" arrivalPos="10.00" arrivalSpeed="11.36" duration="91.00" routeLength="1015.10" waitSteps="0" timeLoss="14.74" rerouteNo="0" devices="tripinfo_down_42" vType="typeNS" speedFactor="1.00" vaporized=""/>
    <tripinfo id="up_40" depart="133.00" departLane="53o_0" departPos="5.10" departSpeed="0.00" departDelay="3.00" arrival="224.00" arrivalLane="54i_0" arrivalPos="10.00" arrivalSpeed="11.53" duration="91.00" routeLength="1015.10" waitSteps="0" timeLoss="14.86" rerouteNo="0" devices="tripinfo_up_40" vType="typeNS" speedFactor="1.00" vaporized=""/>
    <tripinfo id="right_29" depart="93.00" departLane="51o_0" departPos="5.10" departSpeed="0.00" departDelay="0.00" arrival="236.00" arrivalLane="52i_0" arrivalPos="10.00" arrivalSpeed="11.09" duration="143.00" routeLength="1015.10" waitSteps="41" timeLoss="67.07" rerouteNo="0" devices="tripinfo_right_29" vType="typeWE" speedFactor="1.00" vaporized=""/>
    <tripinfo id="left_31" depart="107.00" departLane="52o_0" departPos="5.10" departSpeed="0.00" departDelay="0.00" arrival="237.00" arrivalLane="51i_0" arrivalPos="10.00" arrivalSpeed="11.26" duration="130.00" routeLength="1015.10" waitSteps="26" timeLoss="53.66" rerouteNo="0" devices="tripinfo_left_31" vType="typeWE" speedFactor="1.00" vaporized=""/>
    <tripinfo id="right_34" depart="116.00" departLane="51o_0" departPos="5.10" departSpeed="0.00" departDelay="0.00" arrival="238.00" arrivalLane="52i_0" arrivalPos="10.00" arrivalSpeed="11.46" duration="122.00" routeLength="1015.10" waitSteps="19" timeLoss="46.08" rerouteNo="0" devices="tripinfo_right_34" vType="typeWE" speedFactor="1.00" vaporized=""/>
    <tripinfo id="left_35" depart="123.00" departLane="52o_0" departPos="5.10" departSpeed="0.00" departDelay="0.00" arrival="239.00" arrivalLane="51i_0" arrivalPos="10.00" arrivalSpeed="11.38" duration="116.00" routeLength="1015.10" waitSteps="11" timeLoss="39.98" rerouteNo="0" devices="tripinfo_left_35" vType="typeWE" speedFactor="1.00" vaporized=""/>
    <tripinfo id="right_41" depart="131.00" departLane="51o_0" departPos="5.10" departSpeed="0.00" departDelay="0.00" arrival="240.00" arrivalLane="52i_0" arrivalPos="10.00" arrivalSpeed="11.64" duration="109.00" routeLength="1015.10" waitSteps="7" timeLoss="33.02" rerouteNo="0" devices="tripinfo_right_41" vType="typeWE" speedFactor="1.00" vaporized=""/>
    <tripinfo id="left_36" depart="128.00" departLane="52o_0" departPos="5.10" departSpeed="0.00" departDelay="4.00" arrival="241.00" arrivalLane="51i_0" arrivalPos="10.00" arrivalSpeed="11.75" duration="113.00" routeLength="1015.10" waitSteps="10" timeLoss="36.90" rerouteNo="0" devices="tripinfo_left_36" vType="typeWE" speedFactor="1.00" vaporized=""/>
    <tripinfo id="left_37" depart="133.00" departLane="52o_0" departPos="5.10" departSpeed="0.00" departDelay="5.00" arrival="244.00" arrivalLane="51i_0" arrivalPos="10.00" arrivalSpeed="11.62" duration="111.00" routeLength="1015.10" waitSteps="5" timeLoss="34.55" rerouteNo="0" devices="tripinfo_left_37" vType="typeWE" speedFactor="1.00" vaporized=""/>
    <tripinfo id="left_45" depart="141.00" departLane="52o_0" departPos="5.10" departSpeed="0.00" departDelay="0.00" arrival="246.00" arrivalLane="51i_0" arrivalPos="10.00" arrivalSpeed="11.45" duration="105.00" routeLength="1015.10" waitSteps="0" timeLoss="28.45" rerouteNo="0" devices="tripinfo_left_45" vType="typeWE" speedFactor="1.00" vaporized=""/>
    <tripinfo id="left_48" depart="148.00" departLane="52o_0" departPos="5.10" departSpeed="0.00" departDelay="1.00" arrival="247.00" arrivalLane="51i_0" arrivalPos="10.00" arrivalSpeed="11.66" duration="99.00" routeLength="1015.10" waitSteps="0" timeLoss="23.18" rerouteNo="0" devices="tripinfo_left_48" vType="typeWE" speedFactor="1.00" vaporized=""/>
    <tripinfo id="right_53" depart="157.00" departLane="51o_0" departPos="5.10" departSpeed="0.00" departDelay="0.00" arrival="248.00" arrivalLane="52i_0" arrivalPos="10.00" arrivalSpeed="11.48" duration="91.00" routeLength="1015.10" waitSteps="0" timeLoss="14.72" rerouteNo="0" devices="tripinfo_right_53" vType="typeWE" speedFactor="1.00" vaporized=""/>
    <tripinfo id="left_50" depart="153.00" departLane="52o_0" departPos="5.10" departSpeed="0.00" departDelay="4.00" arrival="249.00" arrivalLane="51i_0" arrivalPos="10.00" arrivalSpeed="11.66" duration="96.00" routeLength="1015.10" waitSteps="0" timeLoss="19.96" rerouteNo="0" devices="tripinfo_left_50" vType="typeWE" speedFactor="1.00" vaporized=""/>
    <tripinfo id="left_54" depart="159.00" departLane="52o_0" departPos="5.10" departSpeed="0.00" departDelay="0.00" arrival="251.00" arrivalLane="51i_0" arrivalPos="10.00" arrivalSpeed="11.34" duration="92.00" routeLength="1015.10" waitSteps="0" timeLoss="15.97" rerouteNo="0" devices="tripinfo_left_54" vType="typeWE" speedFactor="1.00" vaporized=""/>
    <tripinfo id="right_57" depart="171.00" departLane="51o_0" departPos="5.10" departSpeed="0.00" departDelay="0.00" arrival="262.00" arrivalLane="52i_0" arrivalPos="10.00" arrivalSpeed="11.41" duration="91.00" routeLength="1015.10" waitSteps="0" timeLoss="14.43" rerouteNo="0" devices="tripinfo_right_57" vType="typeWE" speedFactor="1.00" vaporized=""/>
    <tripinfo id="left_58" depart="172.00" departLane="52o_0" departPos="5.10" departSpeed="0.00" departDelay="0.00" arrival="264.00" arrivalLane="51i_0" arrivalPos="10.00" arrivalSpeed="11.72" duration="92.00" routeLength="1015.10" waitSteps="0" timeLoss="15.64" rerouteNo="0" devices="tripinfo_left_58" vType="typeWE" speedFactor="1.00" vaporized=""/>
    <tripinfo id="right_59" depart="176.00" departLane="51o_0" departPos="5.10" departSpeed="0.00" departDelay="2.00" arrival="268.00" arrivalLane="52i_0" arrivalPos="10.00" arrivalSpeed="11.47" duration="92.00" routeLength="1015.10" waitSteps="0" timeLoss="15.32" rerouteNo="0" devices="tripinfo_right_59" vType="typeWE" speedFactor="1.00" vaporized=""/>
    <tripinfo id="right_60" depart="181.00" departLane="51o_0" departPos="5.10" departSpeed="0.00" departDelay="6.00" arrival="273.00" arrivalLane="52i_0" arrivalPos="10.00" arrivalSpeed="11.86" duration="92.00" routeLength="1015.10" waitSteps="0" timeLoss="15.66" rerouteNo="0" devices="tripinfo_right_60" vType="typeWE" speedFactor="1.00" vaporized=""/>
    <tripinfo id="right_66" depart="186.00" departLane="51o_0" departPos="5.10" departSpeed="0.00" departDelay="5.00" arrival="277.00" arrivalLane="52i_0" arrivalPos="10.00" arrivalSpeed="11.46" duration="91.00" routeLength="1015.10" waitSteps="0" timeLoss="14.93" rerouteNo="0" devices="tripinfo_right_66" vType="typeWE" speedFactor="1.00" vaporized=""/>
    <tripinfo id="right_67" depart="191.00" departLane="51o_0" departPos="5.10" departSpeed="0.00" departDelay="9.00" arrival="281.00" arrivalLane="52i_0" arrivalPos="10.00" arrivalSpeed="11.49" duration="90.00" routeLength="1015.10" waitSteps="0" timeLoss="13.65" rerouteNo="0" devices="tripinfo_right_67" vType="typeWE" speedFactor="1.00" vaporized=""/>
    <tripinfo id="left_74" depart="194.00" departLane="52o_0" departPos="5.10" departSpeed="0.00" departDelay="0.00" arrival="285.00" arrivalLane="51i_0" arrivalPos="10.00" arrivalSpeed="11.45" duration="91.00" routeLength="1015.10" waitSteps="0" timeLoss="14.74" rerouteNo="0" devices="tripinfo_left_74" vType="typeWE" speedFactor="1.00" vaporized=""/>
    <tripinfo id="right_68" depart="196.00" departLane="51o_0" departPos="5.10" departSpeed="0.00" departDelay="10.00" arrival="287.00" arrivalLane="52i_0" arrivalPos="10.00" arrivalSpeed="11.26" duration="91.00" routeLength="1015.10" waitSteps="0" timeLoss="14.71" rerouteNo="0" devices="tripinfo_right_68" vType="typeWE" speedFactor="1.00" vaporized=""/>
    <tripinfo id="down_46" depart="141.00" departLane="54o_0" departPos="5.10" departSpeed="0.00" departDelay="0.00" arrival="296.00" arrivalLane="53i_0" arrivalPos="10.00" arrivalSpeed="11.74" duration="155.00" routeLength="1015.10" waitSteps="54" timeLoss="78.99" rerouteNo="0" devices="tripinfo_down_46" vType="typeNS" speedFactor="1.00" vaporized=""/>
    <tripinfo id="up_43" depart="138.00" departLane="53o_0" departPos="5.10" departSpeed="0.00" departDelay="4.00" arrival="297.00" arrivalLane="54i_0" arrivalPos="10.00" arrivalSpeed="11.20" duration="159.00" routeLength="1015.10" waitSteps="59" timeLoss="82.61" rerouteNo="0" devices="tripinfo_up_43" vType="typeNS" speedFactor="1.00" vaporized=""/>
    <tripinfo id="down_49" depart="148.00" departLane="54o_0" departPos="5.10" departSpeed="0.00" departDelay="0.00" arrival="298.00" arrivalLane="53i_0" arrivalPos="10.00" arrivalSpeed="11.55" duration="150.00" routeLength="1015.10" waitSteps="48" timeLoss="74.10" rerouteNo="0" devices="tripinfo_down_49" vType="typeNS" speedFactor="1.00" vaporized=""/>
    <tripinfo id="up_44" depart="143.00" departLane="53o_0" departPos="5.10" departSpeed="0.00" departDelay="3.00" arrival="299.00" arrivalLane="54i_0" arrivalPos="10.00" arrivalSpeed="11.25" duration="156.00" routeLength="1015.10" waitSteps="51" timeLoss="79.52" rerouteNo="0" devices="tripinfo_up_44" vType="typeNS" speedFactor="1.00" vaporized=""/>
    <tripinfo id="down_52" depart="156.00" departLane="54o_0" departPos="5.10" departSpeed="0.00" departDelay="0.00" arrival="300.00" arrivalLane="53i_0" arrivalPos="10.00" arrivalSpeed="11.23" duration="144.00" routeLength="1015.10" waitSteps="40" timeLoss="68.04" rerouteNo="0" devices="tripinfo_down_52" vType="typeNS" speedFactor="1.00" vaporized=""/>
    <tripinfo id="up_47" depart="148.00" departLane="53o_0" departPos="5.10" departSpeed="0.00" departDelay="4.00" arrival="301.00" arrivalLane="54i_0" arrivalPos="10.00" arrivalSpeed="11.27" duration="153.00" routeLength="1015.10" waitSteps="48" timeLoss="76.69" rerouteNo="0" devices="tripinfo_up_47" vType="typeNS" speedFactor="1.00" vaporized=""/>
    <tripinfo id="down_56" depart="169.00" departLane="54o_0" departPos="5.10" departSpeed="0.00" departDelay="0.00" arrival="302.00" arrivalLane="53i_0" arrivalPos="10.00" arrivalSpeed="11.37" duration="133.00" routeLength="1015.10" waitSteps="30" timeLoss="57.01" rerouteNo="0" devices="tripinfo_down_56" vType="typeNS" speedFactor="1.00" vaporized=""/>
    <tripinfo id="up_51" depart="153.00" departLane="53o_0" departPos="5.10" departSpeed="0.00" departDelay="4.00" arrival="303.00" arrivalLane="54i_0" arrivalPos="10.00" arrivalSpeed="11.79" duration="150.00" routeLength="1015.10" waitSteps="45" timeLoss="73.61" rerouteNo="0" devices="tripinfo_up_51" vType="typeNS" speedFactor="1.00" vaporized=""/>
    <tripinfo id="down_63" depart="179.00" departLane="54o_0" departPos="5.10" departSpeed="0.00" departDelay="0.00" arrival="304.00" arrivalLane="53i_0" arrivalPos="10.00" arrivalSpeed="11.48" duration="125.00" routeLength="1015.10" waitSteps="21" timeLoss="48.67" rerouteNo="0" devices="tripinfo_down_63" vType="typeNS" speedFactor="1.00" vaporized=""/>
    <tripinfo id="up_55" depart="167.00" departLane="53o_0" departPos="5.10" departSpeed="0.00" departDelay="0.00" arrival="305.00" arrivalLane="54i_0" arrivalPos="10.00" arrivalSpeed="11.28" duration="138.00" routeLength="1015.10" waitSteps="33" timeLoss="62.01" rerouteNo="0" devices="tripinfo_up_55" vType="typeNS" speedFactor="1.00" vaporized=""/>
    <tripinfo id="down_65" depart="185.00" departLane="54o_0" departPos="5.10" departSpeed="0.00" departDelay="5.00" arrival="306.00" arrivalLane="53i_0" arrivalPos="10.00" arrivalSpeed="11.65" duration="121.00" routeLength="1015.10" waitSteps="17" timeLoss="44.71" rerouteNo="0" devices="tripinfo_down_65" vType="typeNS" speedFactor="1.00" vaporized=""/>
    <tripinfo id="up_61" depart="176.00" departLane="53o_0" departPos="5.10" departSpeed="0.00" departDelay="1.00" arrival="307.00" arrivalLane="54i_0" arrivalPos="10.00" arrivalSpeed="11.45" duration="131.00" routeLength="1015.10" waitSteps="25" timeLoss="54.77" rerouteNo="0" devices="tripinfo_up_61" vType="typeNS" speedFactor="1.00" vaporized=""/>
    <tripinfo id="down_69" depart="190.00" departLane="54o_0" departPos="5.10" departSpeed="0.00" departDelay="1.00" arrival="308.00" arrivalLane="53i_0" arrivalPos="10.00" arrivalSpeed="11.75" duration="118.00" routeLength="1015.10" waitSteps="15" timeLoss="41.84" rerouteNo="0" devices="tripinfo_down_69" vType="typeNS" speedFactor="1.00" vaporized=""/>
    <tripinfo id="up_62" depart="188.00" departLane="53o_0" departPos="5.10" departSpeed="0.00" departDelay="11.00" arrival="309.00" arrivalLane="54i_0" arrivalPos="10.00" arrivalSpeed="11.71" duration="121.00" routeLength="1015.10" waitSteps="15" timeLoss="44.75" rerouteNo="0" devices="tripinfo_up_62" vType="typeNS" speedFactor="1.00" vaporized=""/>
    <tripinfo id="down_70" depart="195.00" departLane="54o_0" departPos="5.10" departSpeed="0.00" departDelay="5.00" arrival="310.00" arrivalLane="53i_0" arrivalPos="10.00" arrivalSpeed="11.53" duration="115.00" routeLength="1015.10" waitSteps="11" timeLoss="38.96" rerouteNo="0" devices="tripinfo_down_70" vType="typeNS" speedFactor="1.00" vaporized=""/>
    <tripinfo id="up_64" depart="193.00" departLane="53o_0" departPos="5.10" departSpeed="0.00" departDelay="14.00" arrival="311.00" arrivalLane="54i_0" arrivalPos="10.00" arrivalSpeed="11.48" duration="118.00" routeLength="1015.10" waitSteps="12" timeLoss="41.59" rerouteNo="0" devices="tripinfo_up_64" vType="typeNS" speedFactor="1.00" vaporized=""/>
    <tripinfo id="up_72" depart="198.00" departLane="53o_0" departPos="5.10" departSpeed="0.00" departDelay="5.00" arrival="312.00" arrivalLane="54i_0" arrivalPos="10.00" arrivalSpeed="10.95" duration="114.00" routeLength="1015.10" waitSteps="8" timeLoss="38.05" rerouteNo="0" devices="tripinfo_up_72" vType="typeNS" speedFactor="1.00" vaporized=""/>
    <tripinfo id="down_71" depart="200.00" departLane="54o_0" departPos="5.10" departSpeed="0.00" departDelay="8.00" arrival="312.00" arrivalLane="53i_0" arrivalPos="10.00" arrivalSpeed="11.35" duration="112.00" routeLength="1015.10" waitSteps="5" timeLoss="35.86" rerouteNo="0" devices="tripinfo_down_71" vType="typeNS" speedFactor="1.00" vaporized=""/>
    <tripinfo id="up_77" depart="203.00" departLane="53o_0" departPos="5.10" departSpeed="0.00" departDelay="6.00" arrival="314.00" arrivalLane="54i_0" arrivalPos="10.00" arrivalSpeed="11.35" duration="111.00" routeLength="1015.10" waitSteps="4" timeLoss="35.06" rerouteNo="0" devices="tripinfo_up_77" vType="typeNS" speedFactor="1.00" vaporized=""/>
    <tripinfo id="down_76" depart="205.00" departLane="54o_0" departPos="5.10" departSpeed="0.00" departDelay="8.00" arrival="314.00" arrivalLane="53i_0" arrivalPos="10.00" arrivalSpeed="11.40" duration="109.00" routeLength="1015.10" waitSteps="3" timeLoss="32.61" rerouteNo="0" devices="tripinfo_down_76" vType="typeNS" speedFactor="1.00" vaporized=""/>
    <tripinfo id="up_82" depart="220.00" departLane="53o_0" departPos="5.10" departSpeed="0.00" departDelay="1.00" arrival="316.00" arrivalLane="54i_0" arrivalPos="10.00" arrivalSpeed="11.47" duration="96.00" routeLength="1015.10" waitSteps="0" timeLoss="19.91" rerouteNo="0" devices="tripinfo_up_82" vType="typeNS" speedFactor="1.00" vaporized=""/>
    <tripinfo id="down_80" depart="210.00" departLane="54o_0" departPos="5.10" departSpeed="0.00" departDelay="5.00" arrival="316.00" arrivalLane="53i_0" arrivalPos="10.00" arrivalSpeed="11.29" duration="106.00" routeLength="1015.10" waitSteps="0" timeLoss="29.46" rerouteNo="0" devices="tripinfo_down_80" vType="typeNS" speedFactor="1.00" vaporized=""/>
    <tripinfo id="down_81" depart="215.00" departLane="54o_0" departPos="5.10" departSpeed="0.00" departDelay="3.00" arrival="318.00" arrivalLane="53i_0" arrivalPos="10.00" arrivalSpeed="11.56" duration="103.00" routeLength="1015.10" waitSteps="0" timeLoss="26.22" rerouteNo="0" devices="tripinfo_down_81" vType="typeNS" speedFactor="1.00" vaporized=""/>
    <tripinfo id="down_83" depart="226.00" departLane="54o_0" departPos="5.10" departSpeed="0.00" departDelay="0.00" arrival="320.00" arrivalLane="53i_0" arrivalPos="10.00" arrivalSpeed="11.53" duration="94.00" routeLength="1015.10" waitSteps="0" timeLoss="17.26" rerouteNo="0" devices="tripinfo_down_83" vType="typeNS" speedFactor="1.00" vaporized=""/>
    <tripinfo id="up_84" depart="235.00" departLane="53o_0" departPos="5.10" departSpeed="0.00" departDelay="0.00" arrival="326.00" arrivalLane="54i_0" arrivalPos="10.00" arrivalSpeed="11.41" duration="91.00" routeLength="1015.10" waitSteps="0" timeLoss="15.04" rerouteNo="0" devices="tripinfo_up_84" vType="typeNS" speedFactor="1.00" vaporized=""/>