<?xml version="1.0" encoding="UTF-8"?>

<!-- generated on Mon Apr 30 16:16:49 2018 by SUMO Version 0.32.0
<?xml version="1.0" encoding="UTF-8"?>

<configuration xmlns:xsi="http://www.w3.org/2001/XMLSchema-instance" xsi:noNamespaceSchemaLocation="http://sumo.dlr.de/xsd/sumoConfiguration.xsd">

    <input>
        <net-file value="data/cross.net.xml"/>
        <route-files value="data/cross.rou.xml"/>
        <additional-files value="data/cross.det.xml"/>
    </input>

    <output>
        <summary-output value="data/cross.out"/>
        <tripinfo-output value="output/tripinfo153.xml"/>
    </output>

    <time>
        <begin value="0"/>
    </time>

    <report>
        <verbose value="true"/>
        <duration-log.statistics value="true"/>
        <no-step-log value="true"/>
    </report>

    <traci_server>
        <remote-port value="56991"/>
    </traci_server>

</configuration>
-->

<tripinfos xmlns:xsi="http://www.w3.org/2001/XMLSchema-instance" xsi:noNamespaceSchemaLocation="http://sumo.dlr.de/xsd/tripinfo_file.xsd">
    <tripinfo id="down_0" depart="0.00" departLane="54o_0" departPos="5.10" departSpeed="0.00" departDelay="0.00" arrival="91.00" arrivalLane="53i_0" arrivalPos="10.00" arrivalSpeed="11.54" duration="91.00" routeLength="1015.10" waitSteps="0" timeLoss="14.66" rerouteNo="0" devices="tripinfo_down_0" vType="typeNS" speedFactor="1.00" vaporized=""/>
    <tripinfo id="up_2" depart="1.00" departLane="53o_0" departPos="5.10" departSpeed="0.00" departDelay="0.00" arrival="91.00" arrivalLane="54i_0" arrivalPos="10.00" arrivalSpeed="11.32" duration="90.00" routeLength="1015.10" waitSteps="0" timeLoss="13.78" rerouteNo="0" devices="tripinfo_up_2" vType="typeNS" speedFactor="1.00" vaporized=""/>
    <tripinfo id="down_1" depart="5.00" departLane="54o_0" departPos="5.10" departSpeed="0.00" departDelay="4.00" arrival="96.00" arrivalLane="53i_0" arrivalPos="10.00" arrivalSpeed="11.80" duration="91.00" routeLength="1015.10" waitSteps="0" timeLoss="14.85" rerouteNo="0" devices="tripinfo_down_1" vType="typeNS" speedFactor="1.00" vaporized=""/>
    <tripinfo id="up_7" depart="9.00" departLane="53o_0" departPos="5.10" departSpeed="0.00" departDelay="0.00" arrival="100.00" arrivalLane="54i_0" arrivalPos="10.00" arrivalSpeed="11.60" duration="91.00" routeLength="1015.10" waitSteps="0" timeLoss="15.00" rerouteNo="0" devices="tripinfo_up_7" vType="typeNS" speedFactor="1.00" vaporized=""/>
    <tripinfo id="down_3" depart="10.00" departLane="54o_0" departPos="5.10" departSpeed="0.00" departDelay="6.00" arrival="102.00" arrivalLane="53i_0" arrivalPos="10.00" arrivalSpeed="11.76" duration="92.00" routeLength="1015.10" waitSteps="0" timeLoss="15.94" rerouteNo="0" devices="tripinfo_down_3" vType="typeNS" speedFactor="1.00" vaporized=""/>
    <tripinfo id="right_4" depart="7.00" departLane="51o_0" departPos="5.10" departSpeed="0.00" departDelay="0.00" arrival="111.00" arrivalLane="52i_0" arrivalPos="10.00" arrivalSpeed="11.72" duration="104.00" routeLength="1015.10" waitSteps="2" timeLoss="28.08" rerouteNo="0" devices="tripinfo_right_4" vType="typeWE" speedFactor="1.00" vaporized=""/>
    <tripinfo id="left_5" depart="7.00" departLane="52o_0" departPos="5.10" departSpeed="0.00" departDelay="0.00" arrival="112.00" arrivalLane="51i_0" arrivalPos="10.00" arrivalSpeed="11.42" duration="105.00" routeLength="1015.10" waitSteps="3" timeLoss="28.89" rerouteNo="0" devices="tripinfo_left_5" vType="typeWE" speedFactor="1.00" vaporized=""/>
    <tripinfo id="right_6" depart="12.00" departLane="51o_0" departPos="5.10" departSpeed="0.00" departDelay="4.00" arrival="113.00" arrivalLane="52i_0" arrivalPos="10.00" arrivalSpeed="11.54" duration="101.00" routeLength="1015.10" waitSteps="0" timeLoss="25.02" rerouteNo="0" devices="tripinfo_right_6" vType="typeWE" speedFactor="1.00" vaporized=""/>
    <tripinfo id="left_8" depart="13.00" departLane="52o_0" departPos="5.10" departSpeed="0.00" departDelay="0.00" arrival="114.00" arrivalLane="51i_0" arrivalPos="10.00" arrivalSpeed="11.12" duration="101.00" routeLength="1015.10" waitSteps="0" timeLoss="24.83" rerouteNo="0" devices="tripinfo_left_8" vType="typeWE" speedFactor="1.00" vaporized=""/>
    <tripinfo id="right_10" depart="17.00" departLane="51o_0" departPos="5.10" departSpeed="0.00" departDelay="1.00" arrival="115.00" arrivalLane="52i_0" arrivalPos="10.00" arrivalSpeed="11.59" duration="98.00" routeLength="1015.10" waitSteps="0" timeLoss="21.76" rerouteNo="0" devices="tripinfo_right_10" vType="typeWE" speedFactor="1.00" vaporized=""/>
    <tripinfo id="left_9" depart="18.00" departLane="52o_0" departPos="5.10" departSpeed="0.00" departDelay="4.00" arrival="116.00" arrivalLane="51i_0" arrivalPos="10.00" arrivalSpeed="11.64" duration="98.00" routeLength="1015.10" waitSteps="0" timeLoss="21.58" rerouteNo="0" devices="tripinfo_left_9" vType="typeWE" speedFactor="1.00" vaporized=""/>
    <tripinfo id="left_13" depart="23.00" departLane="52o_0" departPos="5.10" departSpeed="0.00" departDelay="1.00" arrival="117.00" arrivalLane="51i_0" arrivalPos="10.00" arrivalSpeed="11.10" duration="94.00" routeLength="1015.10" waitSteps="0" timeLoss="18.03" rerouteNo="0" devices="tripinfo_left_13" vType="typeWE" speedFactor="1.00" vaporized=""/>
    <tripinfo id="left_16" depart="30.00" departLane="52o_0" departPos="5.10" departSpeed="0.00" departDelay="0.00" arrival="122.00" arrivalLane="51i_0" arrivalPos="10.00" arrivalSpeed="11.76" duration="92.00" routeLength="1015.10" waitSteps="0" timeLoss="15.64" rerouteNo="0" devices="tripinfo_left_16" vType="typeWE" speedFactor="1.00" vaporized=""/>
    <tripinfo id="down_11" depart="21.00" departLane="54o_0" departPos="5.10" departSpeed="0.00" departDelay="0.00" arrival="131.00" arrivalLane="53i_0" arrivalPos="10.00" arrivalSpeed="11.36" duration="110.00" routeLength="1015.10" waitSteps="10" timeLoss="34.26" rerouteNo="0" devices="tripinfo_down_11" vType="typeNS" speedFactor="1.00" vaporized=""/>
    <tripinfo id="up_12" depart="21.00" departLane="53o_0" departPos="5.10" departSpeed="0.00" departDelay="0.00" arrival="131.00" arrivalLane="54i_0" arrivalPos="10.00" arrivalSpeed="11.40" duration="110.00" routeLength="1015.10" waitSteps="8" timeLoss="34.27" rerouteNo="0" devices="tripinfo_up_12" vType="typeNS" speedFactor="1.00" vaporized=""/>
    <tripinfo id="up_14" depart="26.00" departLane="53o_0" departPos="5.10" departSpeed="0.00" departDelay="0.00" arrival="133.00" arrivalLane="54i_0" arrivalPos="10.00" arrivalSpeed="11.63" duration="107.00" routeLength="1015.10" waitSteps="3" timeLoss="31.00" rerouteNo="0" devices="tripinfo_up_14" vType="typeNS" speedFactor="1.00" vaporized=""/>
    <tripinfo id="down_15" depart="28.00" departLane="54o_0" departPos="5.10" departSpeed="0.00" departDelay="0.00" arrival="134.00" arrivalLane="53i_0" arrivalPos="10.00" arrivalSpeed="11.34" duration="106.00" routeLength="1015.10" waitSteps="3" timeLoss="29.46" rerouteNo="0" devices="tripinfo_down_15" vType="typeNS" speedFactor="1.00" vaporized=""/>
    <tripinfo id="down_17" depart="33.00" departLane="54o_0" departPos="5.10" departSpeed="0.00" departDelay="2.00" arrival="136.00" arrivalLane="53i_0" arrivalPos="10.00" arrivalSpeed="11.31" duration="103.00" routeLength="1015.10" waitSteps="0" timeLoss="26.66" rerouteNo="0" devices="tripinfo_down_17" vType="typeNS" speedFactor="1.00" vaporized=""/>
    <tripinfo id="down_18" depart="39.00" departLane="54o_0" departPos="5.10" departSpeed="0.00" departDelay="4.00" arrival="138.00" arrivalLane="53i_0" arrivalPos="10.00" arrivalSpeed="11.42" duration="99.00" routeLength="1015.10" waitSteps="0" timeLoss="22.41" rerouteNo="0" devices="tripinfo_down_18" vType="typeNS" speedFactor="1.00" vaporized=""/>
    <tripinfo id="down_19" depart="44.00" departLane="54o_0" departPos="5.10" departSpeed="0.00" departDelay="6.00" arrival="139.00" arrivalLane="53i_0" arrivalPos="10.00" arrivalSpeed="11.30" duration="95.00" routeLength="1015.10" waitSteps="0" timeLoss="19.27" rerouteNo="0" devices="tripinfo_down_19" vType="typeNS" speedFactor="1.00" vaporized=""/>
    <tripinfo id="up_24" depart="49.00" departLane="53o_0" departPos="5.10" departSpeed="0.00" departDelay="0.00" arrival="140.00" arrivalLane="54i_0" arrivalPos="10.00" arrivalSpeed="11.21" duration="91.00" routeLength="1015.10" waitSteps="0" timeLoss="14.67" rerouteNo="0" devices="tripinfo_up_24" vType="typeNS" speedFactor="1.00" vaporized=""/>
    <tripinfo id="down_20" depart="49.00" departLane="54o_0" departPos="5.10" departSpeed="0.00" departDelay="10.00" arrival="141.00" arrivalLane="53i_0" arrivalPos="10.00" arrivalSpeed="11.49" duration="92.00" routeLength="1015.10" waitSteps="0" timeLoss="15.90" rerouteNo="0" devices="tripinfo_down_20" vType="typeNS" speedFactor="1.00" vaporized=""/>
    <tripinfo id="down_21" depart="54.00" departLane="54o_0" departPos="5.10" departSpeed="0.00" departDelay="13.00" arrival="146.00" arrivalLane="53i_0" arrivalPos="10.00" arrivalSpeed="11.44" duration="92.00" routeLength="1015.10" waitSteps="0" timeLoss="16.07" rerouteNo="0" devices="tripinfo_down_21" vType="typeNS" speedFactor="1.00" vaporized=""/>
    <tripinfo id="down_22" depart="60.00" departLane="54o_0" departPos="5.10" departSpeed="0.00" departDelay="18.00" arrival="152.00" arrivalLane="53i_0" arrivalPos="10.00" arrivalSpeed="11.64" duration="92.00" routeLength="1015.10" waitSteps="0" timeLoss="15.68" rerouteNo="0" devices="tripinfo_down_22" vType="typeNS" speedFactor="1.00" vaporized=""/>
    <tripinfo id="down_26" depart="65.00" departLane="54o_0" departPos="5.10" departSpeed="0.00" departDelay="12.00" arrival="157.00" arrivalLane="53i_0" arrivalPos="10.00" arrivalSpeed="11.61" duration="92.00" routeLength="1015.10" waitSteps="0" timeLoss="15.82" rerouteNo="0" devices="tripinfo_down_26" vType="typeNS" speedFactor="1.00" vaporized=""/>
    <tripinfo id="up_33" depart="67.00" departLane="53o_0" departPos="5.10" departSpeed="0.00" departDelay="0.00" arrival="157.00" arrivalLane="54i_0" arrivalPos="10.00" arrivalSpeed="11.42" duration="90.00" routeLength="1015.10" waitSteps="0" timeLoss="14.00" rerouteNo="0" devices="tripinfo_up_33" vType="typeNS" speedFactor="1.00" vaporized=""/>
    <tripinfo id="down_28" depart="71.00" departLane="54o_0" departPos="5.10" departSpeed="0.00" departDelay="17.00" arrival="162.00" arrivalLane="53i_0" arrivalPos="10.00" arrivalSpeed="11.53" duration="91.00" routeLength="1015.10" waitSteps="0" timeLoss="14.45" rerouteNo="0" devices="tripinfo_down_28" vType="typeNS" speedFactor="1.00" vaporized=""/>
    <tripinfo id="down_30" depart="76.00" departLane="54o_0" departPos="5.10" departSpeed="0.00" departDelay="12.00" arrival="167.00" arrivalLane="53i_0" arrivalPos="10.00" arrivalSpeed="11.36" duration="91.00" routeLength="1015.10" waitSteps="0" timeLoss="14.69" rerouteNo="0" devices="tripinfo_down_30" vType="typeNS" speedFactor="1.00" vaporized=""/>
    <tripinfo id="down_31" depart="81.00" departLane="54o_0" departPos="5.10" departSpeed="0.00" departDelay="16.00" arrival="173.00" arrivalLane="53i_0" arrivalPos="10.00" arrivalSpeed="11.52" duration="92.00" routeLength="1015.10" waitSteps="0" timeLoss="15.90" rerouteNo="0" devices="tripinfo_down_31" vType="typeNS" speedFactor="1.00" vaporized=""/>
    <tripinfo id="down_32" depart="86.00" departLane="54o_0" departPos="5.10" departSpeed="0.00" departDelay="19.00" arrival="176.00" arrivalLane="53i_0" arrivalPos="10.00" arrivalSpeed="11.41" duration="90.00" routeLength="1015.10" waitSteps="0" timeLoss="14.07" rerouteNo="0" devices="tripinfo_down_32" vType="typeNS" speedFactor="1.00" vaporized=""/>
    <tripinfo id="up_40" depart="85.00" departLane="53o_0" departPos="5.10" departSpeed="0.00" departDelay="0.00" arrival="177.00" arrivalLane="54i_0" arrivalPos="10.00" arrivalSpeed="11.70" duration="92.00" routeLength="1015.10" waitSteps="0" timeLoss="15.30" rerouteNo="0" devices="tripinfo_up_40" vType="typeNS" speedFactor="1.00" vaporized=""/>
    <tripinfo id="down_37" depart="91.00" departLane="54o_0" departPos="5.10" departSpeed="0.00" departDelay="14.00" arrival="182.00" arrivalLane="53i_0" arrivalPos="10.00" arrivalSpeed="11.62" duration="91.00" routeLength="1015.10" waitSteps="0" timeLoss="14.83" rerouteNo="0" devices="tripinfo_down_37" vType="typeNS" speedFactor="1.00" vaporized=""/>
    <tripinfo id="left_23" depart="49.00" departLane="52o_0" departPos="5.10" departSpeed="0.00" departDelay="0.00" arrival="191.00" arrivalLane="51i_0" arrivalPos="10.00" arrivalSpeed="11.05" duration="142.00" routeLength="1015.10" waitSteps="41" timeLoss="66.03" rerouteNo="0" devices="tripinfo_left_23" vType="typeWE" speedFactor="1.00" vaporized=""/>
    <tripinfo id="right_34" depart="68.00" departLane="51o_0" departPos="5.10" departSpeed="0.00" departDelay="0.00" arrival="191.00" arrivalLane="52i_0" arrivalPos="10.00" arrivalSpeed="11.38" duration="123.00" routeLength="1015.10" waitSteps="22" timeLoss="47.18" rerouteNo="0" devices="tripinfo_right_34" vType="typeWE" speedFactor="1.00" vaporized=""/>
    <tripinfo id="left_25" depart="54.00" departLane="52o_0" departPos="5.10" departSpeed="0.00" departDelay="3.00" arrival="193.00" arrivalLane="51i_0" arrivalPos="10.00" arrivalSpeed="11.41" duration="139.00" routeLength="1015.10" waitSteps="37" timeLoss="63.24" rerouteNo="0" devices="tripinfo_left_25" vType="typeWE" speedFactor="1.00" vaporized=""/>
    <tripinfo id="right_36" depart="73.00" departLane="51o_0" departPos="5.10" departSpeed="0.00" departDelay="1.00" arrival="193.00" arrivalLane="52i_0" arrivalPos="10.00" arrivalSpeed="11.21" duration="120.00" routeLength="1015.10" waitSteps="15" timeLoss="44.09" rerouteNo="0" devices="tripinfo_right_36" vType="typeWE" speedFactor="1.00" vaporized=""/>
    <tripinfo id="right_39" depart="85.00" departLane="51o_0" departPos="5.10" departSpeed="0.00" departDelay="0.00" arrival="195.00" arrivalLane="52i_0" arrivalPos="10.00" arrivalSpeed="11.44" duration="110.00" routeLength="1015.10" waitSteps="8" timeLoss="33.77" rerouteNo="0" devices="tripinfo_right_39" vType="typeWE" speedFactor="1.00" vaporized=""/>
    <tripinfo id="left_27" depart="59.00" departLane="52o_0" departPos="5.10" departSpeed="0.00" departDelay="5.00" arrival="196.00" arrivalLane="51i_0" arrivalPos="10.00" arrivalSpeed="11.37" duration="137.00" routeLength="1015.10" waitSteps="32" timeLoss="60.89" rerouteNo="0" devices="tripinfo_left_27" vType="typeWE" speedFactor="1.00" vaporized=""/>
    <tripinfo id="right_42" depart="92.00" departLane="51o_0" departPos="5.10" departSpeed="0.00" departDelay="0.00" arrival="197.00" arrivalLane="52i_0" arrivalPos="10.00" arrivalSpeed="11.42" duration="105.00" routeLength="1015.10" waitSteps="1" timeLoss="29.00" rerouteNo="0" devices="tripinfo_right_42" vType="typeWE" speedFactor="1.00" vaporized=""/>
    <tripinfo id="left_29" depart="65.00" departLane="52o_0" departPos="5.10" departSpeed="0.00" departDelay="5.00" arrival="198.00" arrivalLane="51i_0" arrivalPos="10.00" arrivalSpeed="11.67" duration="133.00" routeLength="1015.10" waitSteps="28" timeLoss="56.75" rerouteNo="0" devices="tripinfo_left_29" vType="typeWE" speedFactor="1.00" vaporized=""/>
    <tripinfo id="left_35" depart="70.00" departLane="52o_0" departPos="5.10" departSpeed="0.00" departDelay="2.00" arrival="200.00" arrivalLane="51i_0" arrivalPos="10.00" arrivalSpeed="11.34" duration="130.00" routeLength="1015.10" waitSteps="24" timeLoss="53.89" rerouteNo="0" devices="tripinfo_left_35" vType="typeWE" speedFactor="1.00" vaporized=""/>
    <tripinfo id="left_38" depart="81.00" departLane="52o_0" departPos="5.10" departSpeed="0.00" departDelay="0.00" arrival="202.00" arrivalLane="51i_0" arrivalPos="10.00" arrivalSpeed="11.39" duration="121.00" routeLength="1015.10" waitSteps="17" timeLoss="45.02" rerouteNo="0" devices="tripinfo_left_38" vType="typeWE" speedFactor="1.00" vaporized=""/>
    <tripinfo id="left_41" depart="88.00" departLane="52o_0" departPos="5.10" departSpeed="0.00" departDelay="0.00" arrival="204.00" arrivalLane="51i_0" arrivalPos="10.00" arrivalSpeed="11.39" duration="116.00" routeLength="1015.10" waitSteps="11" timeLoss="39.87" rerouteNo="0" devices="tripinfo_left_41" vType="typeWE" speedFactor="1.00" vaporized=""/>
    <tripinfo id="left_43" depart="115.00" departLane="52o_0" departPos="5.10" departSpeed="0.00" departDelay="3.00" arrival="206.00" arrivalLane="51i_0" arrivalPos="10.00" arrivalSpeed="11.69" duration="91.00" routeLength="1015.10" waitSteps="0" timeLoss="15.01" rerouteNo="0" devices="tripinfo_left_43" vType="typeWE" speedFactor="1.00" vaporized=""/>
    <tripinfo id="down_44" depart="112.00" departLane="54o_0" departPos="5.10" departSpeed="0.00" departDelay="0.00" arrival="216.00" arrivalLane="53i_0" arrivalPos="10.00" arrivalSpeed="11.37" duration="104.00" routeLength="1015.10" waitSteps="4" timeLoss="28.27" rerouteNo="0" devices="tripinfo_down_44" vType="typeNS" speedFactor="1.00" vaporized=""/>
    <tripinfo id="up_45" depart="114.00" departLane="53o_0" departPos="5.10" departSpeed="0.00" departDelay="0.00" arrival="216.00" arrivalLane="54i_0" arrivalPos="10.00" arrivalSpeed="11.48" duration="102.00" routeLength="1015.10" waitSteps="0" timeLoss="25.89" rerouteNo="0" devices="tripinfo_up_45" vType="typeNS" speedFactor="1.00" vaporized=""/>
    <tripinfo id="down_46" depart="117.00" departLane="54o_0" departPos="5.10" departSpeed="0.00" departDelay="2.00" arrival="218.00" arrivalLane="53i_0" arrivalPos="10.00" arrivalSpeed="11.51" duration="101.00" routeLength="1015.10" waitSteps="0" timeLoss="25.07" rerouteNo="0" devices="tripinfo_down_46" vType="typeNS" speedFactor="1.00" vaporized=""/>
    <tripinfo id="up_47" depart="119.00" departLane="53o_0" departPos="5.10" departSpeed="0.00" departDelay="3.00" arrival="218.00" arrivalLane="54i_0" arrivalPos="10.00" arrivalSpeed="11.81" duration="99.00" routeLength="1015.10" waitSteps="0" timeLoss="22.64" rerouteNo="0" devices="tripinfo_up_47" vType="typeNS" speedFactor="1.00" vaporized=""/>
    <tripinfo id="down_48" depart="122.00" departLane="54o_0" departPos="5.10" departSpeed="0.00" departDelay="1.00" arrival="220.00" arrivalLane="53i_0" arrivalPos="10.00" arrivalSpeed="11.58" duration="98.00" routeLength="1015.10" waitSteps="0" timeLoss="22.08" rerouteNo="0" devices="tripinfo_down_48" vType="typeNS" speedFactor="1.00" vaporized=""/>
    <tripinfo id="down_50" depart="127.00" departLane="54o_0" departPos="5.10" departSpeed="0.00" departDelay="2.00" arrival="222.00" arrivalLane="53i_0" arrivalPos="10.00" arrivalSpeed="11.37" duration="95.00" routeLength="1015.10" waitSteps="0" timeLoss="18.97" rerouteNo="0" devices="tripinfo_down_50" vType="typeNS" speedFactor="1.00" vaporized=""/>
    <tripinfo id="left_51" depart="128.00" departLane="52o_0" departPos="5.10" departSpeed="0.00" departDelay="0.00" arrival="229.00" arrivalLane="51i_0" arrivalPos="10.00" arrivalSpeed="11.67" duration="101.00" routeLength="1015.10" waitSteps="0" timeLoss="24.66" rerouteNo="0" devices="tripinfo_left_51" vType="typeWE" speedFactor="1.00" vaporized=""/>
    <tripinfo id="right_49" depart="125.00" departLane="51o_0" departPos="5.10" departSpeed="0.00" departDelay="0.00" arrival="230.00" arrivalLane="52i_0" arrivalPos="10.00" arrivalSpeed="11.38" duration="105.00" routeLength="1015.10" waitSteps="1" timeLoss="28.62" rerouteNo="0" devices="tripinfo_right_49" vType="typeWE" speedFactor="1.00" vaporized=""/>
    <tripinfo id="up_52" depart="139.00" departLane="53o_0" departPos="5.10" departSpeed="0.00" departDelay="2.00" arrival="231.00" arrivalLane="54i_0" arrivalPos="10.00" arrivalSpeed="11.66" duration="92.00" routeLength="1015.10" waitSteps="0" timeLoss="15.27" rerouteNo="0" devices="tripinfo_up_52" vType="typeNS" speedFactor="1.00" vaporized=""/>
    <tripinfo id="up_53" depart="144.00" departLane="53o_0" departPos="5.10" departSpeed="0.00" departDelay="4.00" arrival="237.00" arrivalLane="54i_0" arrivalPos="10.00" arrivalSpeed="11.42" duration="93.00" routeLength="1015.10" waitSteps="0" timeLoss="16.33" rerouteNo="0" devices="tripinfo_up_53" vType="typeNS" speedFactor="1.00" vaporized=""/>
    <tripinfo id="down_58" depart="148.00" departLane="54o_0" departPos="5.10" departSpeed="0.00" departDelay="0.00" arrival="238.00" arrivalLane="53i_0" arrivalPos="10.00" arrivalSpeed="11.36" duration="90.00" routeLength="1015.10" waitSteps="0" timeLoss="13.88" rerouteNo="0" devices="tripinfo_down_58" vType="typeNS" speedFactor="1.00" vaporized=""/>
    <tripinfo id="left_54" depart="142.00" departLane="52o_0" departPos="5.10" departSpeed="0.00" departDelay="0.00" arrival="247.00" arrivalLane="51i_0" arrivalPos="10.00" arrivalSpeed="11.55" duration="105.00" routeLength="1015.10" waitSteps="1" timeLoss="28.65" rerouteNo="0" devices="tripinfo_left_54" vType="typeWE" speedFactor="1.00" vaporized=""/>
    <tripinfo id="right_55" depart="144.00" departLane="51o_0" departPos="5.10" departSpeed="0.00" departDelay="0.00" arrival="248.00" arrivalLane="52i_0" arrivalPos="10.00" arrivalSpeed="11.62" duration="104.00" routeLength="1015.10" waitSteps="2" timeLoss="27.49" rerouteNo="0" devices="tripinfo_right_55" vType="typeWE" speedFactor="1.00" vaporized=""/>
    <tripinfo id="left_56" depart="147.00" departLane="52o_0" departPos="5.10" departSpeed="0.00" departDelay="0.00" arrival="249.00" arrivalLane="51i_0" arrivalPos="10.00" arrivalSpeed="11.47" duration="102.00" routeLength="1015.10" waitSteps="0" timeLoss="25.75" rerouteNo="0" devices="tripinfo_left_56" vType="typeWE" speedFactor="1.00" vaporized=""/>
    <tripinfo id="right_59" depart="149.00" departLane="51o_0" departPos="5.10" departSpeed="0.00" departDelay="0.00" arrival="250.00" arrivalLane="52i_0" arrivalPos="10.00" arrivalSpeed="11.67" duration="101.00" routeLength="1015.10" waitSteps="0" timeLoss="24.59" rerouteNo="0" devices="tripinfo_right_59" vType="typeWE" speedFactor="1.00" vaporized=""/>
    <tripinfo id="left_57" depart="153.00" departLane="52o_0" departPos="5.10" departSpeed="0.00" departDelay="5.00" arrival="251.00" arrivalLane="51i_0" arrivalPos="10.00" arrivalSpeed="11.47" duration="98.00" routeLength="1015.10" waitSteps="0" timeLoss="22.02" rerouteNo="0" devices="tripinfo_left_57" vType="typeWE" speedFactor="1.00" vaporized=""/>
    <tripinfo id="right_60" depart="159.00" departLane="51o_0" departPos="5.10" departSpeed="0.00" departDelay="0.00" arrival="252.00" arrivalLane="52i_0" arrivalPos="10.00" arrivalSpeed="11.43" duration="93.00" routeLength="1015.10" waitSteps="0" timeLoss="16.26" rerouteNo="0" devices="tripinfo_right_60" vType="typeWE" speedFactor="1.00" vaporized=""/>
    <tripinfo id="right_62" depart="164.00" departLane="51o_0" departPos="5.10" departSpeed="0.00" departDelay="2.00" arrival="256.00" arrivalLane="52i_0" arrivalPos="10.00" arrivalSpeed="11.64" duration="92.00" routeLength="1015.10" waitSteps="0" timeLoss="15.68" rerouteNo="0" devices="tripinfo_right_62" vType="typeWE" speedFactor="1.00" vaporized=""/>
    <tripinfo id="left_64" depart="165.00" departLane="52o_0" departPos="5.10" departSpeed="0.00" departDelay="0.00" arrival="257.00" arrivalLane="51i_0" arrivalPos="10.00" arrivalSpeed="11.63" duration="92.00" routeLength="1015.10" waitSteps="0" timeLoss="15.16" rerouteNo="0" devices="tripinfo_left_64" vType="typeWE" speedFactor="1.00" vaporized=""/>
    <tripinfo id="left_66" depart="170.00" departLane="52o_0" departPos="5.10" departSpeed="0.00" departDelay="3.00" arrival="262.00" arrivalLane="51i_0" arrivalPos="10.00" arrivalSpeed="11.71" duration="92.00" routeLength="1015.10" waitSteps="0" timeLoss="15.45" rerouteNo="0" devices="tripinfo_left_66" vType="typeWE" speedFactor="1.00" vaporized=""/>
    <tripinfo id="left_68" depart="175.00" departLane="52o_0" departPos="5.10" departSpeed="0.00" departDelay="3.00" arrival="266.00" arrivalLane="51i_0" arrivalPos="10.00" arrivalSpeed="11.32" duration="91.00" routeLength="1015.10" waitSteps="0" timeLoss="14.76" rerouteNo="0" devices="tripinfo_left_68" vType="typeWE" speedFactor="1.00" vaporized=""/>
    <tripinfo id="left_69" depart="180.00" departLane="52o_0" departPos="5.10" departSpeed="0.00" departDelay="2.00" arrival="272.00" arrivalLane="51i_0" arrivalPos="10.00" arrivalSpeed="11.75" duration="92.00" routeLength="1015.10" waitSteps="0" timeLoss="15.67" rerouteNo="0" devices="tripinfo_left_69" vType="typeWE" speedFactor="1.00" vaporized=""/>
    <tripinfo id="down_61" depart="159.00" departLane="54o_0" departPos="5.10" departSpeed="0.00" departDelay="0.00" arrival="281.00" arrivalLane="53i_0" arrivalPos="10.00" arrivalSpeed="11.45" duration="122.00" routeLength="1015.10" waitSteps="19" timeLoss="46.25" rerouteNo="0" devices="tripinfo_down_61" vType="typeNS" speedFactor="1.00" vaporized=""/>
    <tripinfo id="up_63" depart="164.00" departLane="53o_0" departPos="5.10" departSpeed="0.00" departDelay="0.00" arrival="281.00" arrivalLane="54i_0" arrivalPos="10.00" arrivalSpeed="11.75" duration="117.00" routeLength="1015.10" waitSteps="15" timeLoss="40.88" rerouteNo="0" devices="tripinfo_up_63" vType="typeNS" speedFactor="1.00" vaporized=""/>
    <tripinfo id="up_65" depart="169.00" departLane="53o_0" departPos="5.10" departSpeed="0.00" departDelay="3.00" arrival="283.00" arrivalLane="54i_0" arrivalPos="10.00" arrivalSpeed="11.49" duration="114.00" routeLength="1015.10" waitSteps="11" timeLoss="38.16" rerouteNo="0" devices="tripinfo_up_65" vType="typeNS" speedFactor="1.00" vaporized=""/>
    <tripinfo id="up_67" depart="174.00" departLane="53o_0" departPos="5.10" departSpeed="0.00" departDelay="7.00" arrival="286.00" arrivalLane="54i_0" arrivalPos="10.00" arrivalSpeed="11.54" duration="112.00" routeLength="1015.10" waitSteps="9" timeLoss="35.43" rerouteNo="0" devices="tripinfo_up_67" vType="typeNS" speedFactor="1.00" vaporized=""/>
    <tripinfo id="left_70" depart="191.00" departLane="52o_0" departPos="5.10" departSpeed="0.00" departDelay="1.00" arrival="290.00" arrivalLane="51i_0" arrivalPos="10.00" arrivalSpeed="11.38" duration="99.00" routeLength="1015.10" waitSteps="0" timeLoss="22.99" rerouteNo="0" devices="tripinfo_left_70" vType="typeWE" speedFactor="1.00" vaporized=""/>
    <tripinfo id="left_71" depart="199.00" departLane="52o_0" departPos="5.10" departSpeed="0.00" departDelay="0.00" arrival="292.00" arrivalLane="51i_0" arrivalPos="10.00" arrivalSpeed="11.32" duration="93.00" routeLength="1015.10" waitSteps="0" timeLoss="16.85" rerouteNo="0" devices="tripinfo_left_71" vType="typeWE" speedFactor="1.00" vaporized=""/>
    <tripinfo id="left_73" depart="204.00" departLane="52o_0" departPos="5.10" departSpeed="0.00" departDelay="4.00" arrival="295.00" arrivalLane="51i_0" arrivalPos="10.00" arrivalSpeed="11.45" duration="91.00" routeLength="1015.10" waitSteps="0" timeLoss="14.95" rerouteNo="0" devices="tripinfo_left_73" vType="typeWE" speedFactor="1.00" vaporized=""/>
    <tripinfo id="right_74" depart="204.00" departLane="51o_0" departPos="5.10" departSpeed="0.00" departDelay="0.00" arrival="295.00" arrivalLane="52i_0" arrivalPos="10.00" arrivalSpeed="11.53" duration="91.00" routeLength="1015.10" waitSteps="0" timeLoss="14.92" rerouteNo="0" devices="tripinfo_right_74" vType="typeWE" speedFactor="1.00" vaporized=""/>
    <tripinfo id="down_75" depart="204.00" departLane="54o_0" departPos="5.10" departSpeed="0.00" departDelay="0.00" arrival="297.00" arrivalLane="53i_0" arrivalPos="10.00" arrivalSpeed="11.29" duration="93.00" routeLength="1015.10" waitSteps="0" timeLoss="16.25" rerouteNo="0" devices="tripinfo_down_75" vType="typeNS" speedFactor="1.00" vaporized=""/>
    <tripinfo id="down_76" depart="209.00" departLane="54o_0" departPos="5.10" departSpeed="0.00" departDelay="4.00" arrival="300.00" arrivalLane="53i_0" arrivalPos="10.00" arrivalSpeed="10.72" duration="91.00" routeLength="1015.10" waitSteps="0" timeLoss="14.83" rerouteNo="0" devices="tripinfo_down_76" vType="typeNS" speedFactor="1.00" vaporized=""/>
    <tripinfo id="left_78" depart="212.00" departLane="52o_0" departPos="5.10" departSpeed="0.00" departDelay="0.00" arrival="304.00" arrivalLane="51i_0" arrivalPos="10.00" arrivalSpeed="11.62" duration="92.00" routeLength="1015.10" waitSteps="0" timeLoss="15.79" rerouteNo="0" devices="tripinfo_left_78" vType="typeWE" speedFactor="1.00" vaporized=""/>
    <tripinfo id="up_72" depart="199.00" departLane="53o_0" departPos="5.10" departSpeed="0.00" departDelay="0.00" arrival="305.00" arrivalLane="54i_0" arrivalPos="10.00" arrivalSpeed="11.23" duration="106.00" routeLength="1015.10" waitSteps="4" timeLoss="29.81" rerouteNo="0" devices="tripinfo_up_72" vType="typeNS" speedFactor="1.00" vaporized=""/>
    <tripinfo id="left_79" depart="217.00" departLane="52o_0" departPos="5.10" departSpeed="0.00" departDelay="3.00" arrival="309.00" arrivalLane="51i_0" arrivalPos="10.00" arrivalSpeed="11.38" duration="92.00" routeLength="1015.10" waitSteps="0" timeLoss="15.50" rerouteNo="0" devices="tripinfo_left_79" vType="typeWE" speedFactor="1.00" vaporized=""/>
    <tripinfo id="left_82" depart="222.00" departLane="52o_0" departPos="5.10" departSpeed="0.00" departDelay="4.00" arrival="313.00" arrivalLane="51i_0" arrivalPos="10.00" arrivalSpeed="11.47" duration="91.00" routeLength="1015.10" waitSteps="0" timeLoss="14.95" rerouteNo="0" devices="tripinfo_left_82" vType="typeWE" speedFactor="1.00" vaporized=""/>
    <tripinfo id="right_83" depart="221.00" departLane="51o_0" departPos="5.10" departSpeed="0.00" departDelay="0.00" arrival="313.00" arrivalLane="52i_0" arrivalPos="10.00" arrivalSpeed="11.52" duration="92.00" routeLength="1015.10" waitSteps="0" timeLoss="15.50" rerouteNo="0" devices="tripinfo_right_83" vType="typeWE" speedFactor="1.00" vaporized=""/>