<?xml version="1.0" encoding="UTF-8"?>

<!-- generated on Mon Apr 30 16:38:00 2018 by SUMO Version 0.32.0
<?xml version="1.0" encoding="UTF-8"?>

<configuration xmlns:xsi="http://www.w3.org/2001/XMLSchema-instance" xsi:noNamespaceSchemaLocation="http://sumo.dlr.de/xsd/sumoConfiguration.xsd">

    <input>
        <net-file value="data/cross.net.xml"/>
        <route-files value="data/cross.rou.xml"/>
        <additional-files value="data/cross.det.xml"/>
    </input>

    <output>
        <summary-output value="data/cross.out"/>
        <tripinfo-output value="output/tripinfo90.xml"/>
    </output>

    <time>
        <begin value="0"/>
    </time>

    <report>
        <verbose value="true"/>
        <duration-log.statistics value="true"/>
        <no-step-log value="true"/>
    </report>

    <traci_server>
        <remote-port value="35201"/>
    </traci_server>

</configuration>
-->

<tripinfos xmlns:xsi="http://www.w3.org/2001/XMLSchema-instance" xsi:noNamespaceSchemaLocation="http://sumo.dlr.de/xsd/tripinfo_file.xsd">
    <tripinfo id="down_1" depart="13.00" departLane="54o_0" departPos="5.10" departSpeed="0.00" departDelay="0.00" arrival="104.00" arrivalLane="53i_0" arrivalPos="10.00" arrivalSpeed="11.62" duration="91.00" routeLength="1015.10" waitSteps="0" timeLoss="14.70" rerouteNo="0" devices="tripinfo_down_1" vType="typeNS" speedFactor="1.00" vaporized=""/>
    <tripinfo id="left_4" depart="20.00" departLane="52o_0" departPos="5.10" departSpeed="0.00" departDelay="0.00" arrival="110.00" arrivalLane="51i_0" arrivalPos="10.00" arrivalSpeed="11.61" duration="90.00" routeLength="1015.10" waitSteps="0" timeLoss="13.95" rerouteNo="0" devices="tripinfo_left_4" vType="typeWE" speedFactor="1.00" vaporized=""/>
    <tripinfo id="right_0" depart="8.00" departLane="51o_0" departPos="5.10" departSpeed="0.00" departDelay="0.00" arrival="115.00" arrivalLane="52i_0" arrivalPos="10.00" arrivalSpeed="11.07" duration="107.00" routeLength="1015.10" waitSteps="7" timeLoss="31.00" rerouteNo="0" devices="tripinfo_right_0" vType="typeWE" speedFactor="1.00" vaporized=""/>
    <tripinfo id="left_7" depart="27.00" departLane="52o_0" departPos="5.10" departSpeed="0.00" departDelay="0.00" arrival="118.00" arrivalLane="51i_0" arrivalPos="10.00" arrivalSpeed="11.53" duration="91.00" routeLength="1015.10" waitSteps="0" timeLoss="14.75" rerouteNo="0" devices="tripinfo_left_7" vType="typeWE" speedFactor="1.00" vaporized=""/>
    <tripinfo id="right_2" depart="15.00" departLane="51o_0" departPos="5.10" departSpeed="0.00" departDelay="0.00" arrival="119.00" arrivalLane="52i_0" arrivalPos="10.00" arrivalSpeed="11.50" duration="104.00" routeLength="1015.10" waitSteps="0" timeLoss="27.76" rerouteNo="0" devices="tripinfo_right_2" vType="typeWE" speedFactor="1.00" vaporized=""/>
    <tripinfo id="right_6" depart="25.00" departLane="51o_0" departPos="5.10" departSpeed="0.00" departDelay="0.00" arrival="121.00" arrivalLane="52i_0" arrivalPos="10.00" arrivalSpeed="11.38" duration="96.00" routeLength="1015.10" waitSteps="0" timeLoss="19.64" rerouteNo="0" devices="tripinfo_right_6" vType="typeWE" speedFactor="1.00" vaporized=""/>
    <tripinfo id="left_10" depart="44.00" departLane="52o_0" departPos="5.10" departSpeed="0.00" departDelay="0.00" arrival="135.00" arrivalLane="51i_0" arrivalPos="10.00" arrivalSpeed="11.63" duration="91.00" routeLength="1015.10" waitSteps="0" timeLoss="14.59" rerouteNo="0" devices="tripinfo_left_10" vType="typeWE" speedFactor="1.00" vaporized=""/>
    <tripinfo id="right_11" depart="46.00" departLane="51o_0" departPos="5.10" departSpeed="0.00" departDelay="0.00" arrival="138.00" arrivalLane="52i_0" arrivalPos="10.00" arrivalSpeed="11.50" duration="92.00" routeLength="1015.10" waitSteps="0" timeLoss="15.24" rerouteNo="0" devices="tripinfo_right_11" vType="typeWE" speedFactor="1.00" vaporized=""/>
    <tripinfo id="left_12" depart="54.00" departLane="52o_0" departPos="5.10" departSpeed="0.00" departDelay="0.00" arrival="145.00" arrivalLane="51i_0" arrivalPos="10.00" arrivalSpeed="11.48" duration="91.00" routeLength="1015.10" waitSteps="0" timeLoss="14.73" rerouteNo="0" devices="tripinfo_left_12" vType="typeWE" speedFactor="1.00" vaporized=""/>
    <tripinfo id="right_14" depart="56.00" departLane="51o_0" departPos="5.10" departSpeed="0.00" departDelay="0.00" arrival="148.00" arrivalLane="52i_0" arrivalPos="10.00" arrivalSpeed="11.76" duration="92.00" routeLength="1015.10" waitSteps="0" timeLoss="15.76" rerouteNo="0" devices="tripinfo_right_14" vType="typeWE" speedFactor="1.00" vaporized=""/>
    <tripinfo id="left_15" depart="59.00" departLane="52o_0" departPos="5.10" departSpeed="0.00" departDelay="1.00" arrival="150.00" arrivalLane="51i_0" arrivalPos="10.00" arrivalSpeed="11.79" duration="91.00" routeLength="1015.10" waitSteps="0" timeLoss="14.67" rerouteNo="0" devices="tripinfo_left_15" vType="typeWE" speedFactor="1.00" vaporized=""/>
    <tripinfo id="right_18" depart="67.00" departLane="51o_0" departPos="5.10" departSpeed="0.00" departDelay="0.00" arrival="158.00" arrivalLane="52i_0" arrivalPos="10.00" arrivalSpeed="11.44" duration="91.00" routeLength="1015.10" waitSteps="0" timeLoss="14.92" rerouteNo="0" devices="tripinfo_right_18" vType="typeWE" speedFactor="1.00" vaporized=""/>
    <tripinfo id="left_19" depart="68.00" departLane="52o_0" departPos="5.10" departSpeed="0.00" departDelay="0.00" arrival="160.00" arrivalLane="51i_0" arrivalPos="10.00" arrivalSpeed="11.58" duration="92.00" routeLength="1015.10" waitSteps="0" timeLoss="15.75" rerouteNo="0" devices="tripinfo_left_19" vType="typeWE" speedFactor="1.00" vaporized=""/>
    <tripinfo id="left_21" depart="73.00" departLane="52o_0" departPos="5.10" departSpeed="0.00" departDelay="3.00" arrival="165.00" arrivalLane="51i_0" arrivalPos="10.00" arrivalSpeed="11.64" duration="92.00" routeLength="1015.10" waitSteps="0" timeLoss="15.70" rerouteNo="0" devices="tripinfo_left_21" vType="typeWE" speedFactor="1.00" vaporized=""/>
    <tripinfo id="up_13" depart="54.00" departLane="53o_0" departPos="5.10" departSpeed="0.00" departDelay="0.00" arrival="176.00" arrivalLane="54i_0" arrivalPos="10.00" arrivalSpeed="10.72" duration="122.00" routeLength="1015.10" waitSteps="19" timeLoss="46.08" rerouteNo="0" devices="tripinfo_up_13" vType="typeNS" speedFactor="1.00" vaporized=""/>
    <tripinfo id="down_3" depart="18.00" departLane="54o_0" departPos="5.10" departSpeed="0.00" departDelay="1.00" arrival="176.00" arrivalLane="53i_0" arrivalPos="10.00" arrivalSpeed="11.51" duration="158.00" routeLength="1015.10" waitSteps="56" timeLoss="81.76" rerouteNo="0" devices="tripinfo_down_3" vType="typeNS" speedFactor="1.00" vaporized=""/>
    <tripinfo id="down_5" depart="23.00" departLane="54o_0" departPos="5.10" departSpeed="0.00" departDelay="3.00" arrival="178.00" arrivalLane="53i_0" arrivalPos="10.00" arrivalSpeed="11.45" duration="155.00" routeLength="1015.10" waitSteps="51" timeLoss="78.85" rerouteNo="0" devices="tripinfo_down_5" vType="typeNS" speedFactor="1.00" vaporized=""/>
    <tripinfo id="up_20" depart="68.00" departLane="53o_0" departPos="5.10" departSpeed="0.00" departDelay="0.00" arrival="178.00" arrivalLane="54i_0" arrivalPos="10.00" arrivalSpeed="11.43" duration="110.00" routeLength="1015.10" waitSteps="6" timeLoss="34.26" rerouteNo="0" devices="tripinfo_up_20" vType="typeNS" speedFactor="1.00" vaporized=""/>
    <tripinfo id="down_8" depart="29.00" departLane="54o_0" departPos="5.10" departSpeed="0.00" departDelay="0.00" arrival="180.00" arrivalLane="53i_0" arrivalPos="10.00" arrivalSpeed="11.51" duration="151.00" routeLength="1015.10" waitSteps="48" timeLoss="75.11" rerouteNo="0" devices="tripinfo_down_8" vType="typeNS" speedFactor="1.00" vaporized=""/>
    <tripinfo id="down_9" depart="39.00" departLane="54o_0" departPos="5.10" departSpeed="0.00" departDelay="0.00" arrival="182.00" arrivalLane="53i_0" arrivalPos="10.00" arrivalSpeed="11.41" duration="143.00" routeLength="1015.10" waitSteps="39" timeLoss="66.78" rerouteNo="0" devices="tripinfo_down_9" vType="typeNS" speedFactor="1.00" vaporized=""/>
    <tripinfo id="down_16" depart="61.00" departLane="54o_0" departPos="5.10" departSpeed="0.00" departDelay="0.00" arrival="185.00" arrivalLane="53i_0" arrivalPos="10.00" arrivalSpeed="11.63" duration="124.00" routeLength="1015.10" waitSteps="20" timeLoss="47.78" rerouteNo="0" devices="tripinfo_down_16" vType="typeNS" speedFactor="1.00" vaporized=""/>
    <tripinfo id="up_25" depart="95.00" departLane="53o_0" departPos="5.10" departSpeed="0.00" departDelay="0.00" arrival="186.00" arrivalLane="54i_0" arrivalPos="10.00" arrivalSpeed="11.33" duration="91.00" routeLength="1015.10" waitSteps="0" timeLoss="14.82" rerouteNo="0" devices="tripinfo_up_25" vType="typeNS" speedFactor="1.00" vaporized=""/>
    <tripinfo id="down_17" depart="66.00" departLane="54o_0" departPos="5.10" departSpeed="0.00" departDelay="4.00" arrival="187.00" arrivalLane="53i_0" arrivalPos="10.00" arrivalSpeed="11.24" duration="121.00" routeLength="1015.10" waitSteps="17" timeLoss="44.65" rerouteNo="0" devices="tripinfo_down_17" vType="typeNS" speedFactor="1.00" vaporized=""/>
    <tripinfo id="down_23" depart="81.00" departLane="54o_0" departPos="5.10" departSpeed="0.00" departDelay="0.00" arrival="189.00" arrivalLane="53i_0" arrivalPos="10.00" arrivalSpeed="11.84" duration="108.00" routeLength="1015.10" waitSteps="4" timeLoss="31.39" rerouteNo="0" devices="tripinfo_down_23" vType="typeNS" speedFactor="1.00" vaporized=""/>
    <tripinfo id="down_24" depart="86.00" departLane="54o_0" departPos="5.10" departSpeed="0.00" departDelay="3.00" arrival="190.00" arrivalLane="53i_0" arrivalPos="10.00" arrivalSpeed="11.02" duration="104.00" routeLength="1015.10" waitSteps="0" timeLoss="28.02" rerouteNo="0" devices="tripinfo_down_24" vType="typeNS" speedFactor="1.00" vaporized=""/>
    <tripinfo id="down_27" depart="105.00" departLane="54o_0" departPos="5.10" departSpeed="0.00" departDelay="0.00" arrival="196.00" arrivalLane="53i_0" arrivalPos="10.00" arrivalSpeed="11.32" duration="91.00" routeLength="1015.10" waitSteps="0" timeLoss="14.26" rerouteNo="0" devices="tripinfo_down_27" vType="typeNS" speedFactor="1.00" vaporized=""/>
    <tripinfo id="down_29" depart="114.00" departLane="54o_0" departPos="5.10" departSpeed="0.00" departDelay="0.00" arrival="205.00" arrivalLane="53i_0" arrivalPos="10.00" arrivalSpeed="11.73" duration="91.00" routeLength="1015.10" waitSteps="0" timeLoss="14.90" rerouteNo="0" devices="tripinfo_down_29" vType="typeNS" speedFactor="1.00" vaporized=""/>
    <tripinfo id="up_31" depart="133.00" departLane="53o_0" departPos="5.10" departSpeed="0.00" departDelay="0.00" arrival="225.00" arrivalLane="54i_0" arrivalPos="10.00" arrivalSpeed="11.54" duration="92.00" routeLength="1015.10" waitSteps="0" timeLoss="15.80" rerouteNo="0" devices="tripinfo_up_31" vType="typeNS" speedFactor="1.00" vaporized=""/>
    <tripinfo id="left_22" depart="80.00" departLane="52o_0" departPos="5.10" departSpeed="0.00" departDelay="0.00" arrival="236.00" arrivalLane="51i_0" arrivalPos="10.00" arrivalSpeed="10.98" duration="156.00" routeLength="1015.10" waitSteps="55" timeLoss="80.07" rerouteNo="0" devices="tripinfo_left_22" vType="typeWE" speedFactor="1.00" vaporized=""/>
    <tripinfo id="right_28" depart="110.00" departLane="51o_0" departPos="5.10" departSpeed="0.00" departDelay="0.00" arrival="237.00" arrivalLane="52i_0" arrivalPos="10.00" arrivalSpeed="11.51" duration="127.00" routeLength="1015.10" waitSteps="23" timeLoss="50.52" rerouteNo="0" devices="tripinfo_right_28" vType="typeWE" speedFactor="1.00" vaporized=""/>
    <tripinfo id="right_34" depart="142.00" departLane="51o_0" departPos="5.10" departSpeed="0.00" departDelay="0.00" arrival="238.00" arrivalLane="52i_0" arrivalPos="10.00" arrivalSpeed="10.98" duration="96.00" routeLength="1015.10" waitSteps="0" timeLoss="19.98" rerouteNo="0" devices="tripinfo_right_34" vType="typeWE" speedFactor="1.00" vaporized=""/>
    <tripinfo id="left_26" depart="97.00" departLane="52o_0" departPos="5.10" departSpeed="0.00" departDelay="0.00" arrival="239.00" arrivalLane="51i_0" arrivalPos="10.00" arrivalSpeed="11.29" duration="142.00" routeLength="1015.10" waitSteps="39" timeLoss="65.80" rerouteNo="0" devices="tripinfo_left_26" vType="typeWE" speedFactor="1.00" vaporized=""/>
    <tripinfo id="left_30" depart="129.00" departLane="52o_0" departPos="5.10" departSpeed="0.00" departDelay="0.00" arrival="241.00" arrivalLane="51i_0" arrivalPos="10.00" arrivalSpeed="11.70" duration="112.00" routeLength="1015.10" waitSteps="9" timeLoss="35.59" rerouteNo="0" devices="tripinfo_left_30" vType="typeWE" speedFactor="1.00" vaporized=""/>
    <tripinfo id="left_33" depart="141.00" departLane="52o_0" departPos="5.10" departSpeed="0.00" departDelay="0.00" arrival="243.00" arrivalLane="51i_0" arrivalPos="10.00" arrivalSpeed="11.26" duration="102.00" routeLength="1015.10" waitSteps="0" timeLoss="25.82" rerouteNo="0" devices="tripinfo_left_33" vType="typeWE" speedFactor="1.00" vaporized=""/>
    <tripinfo id="left_37" depart="148.00" departLane="52o_0" departPos="5.10" departSpeed="0.00" departDelay="1.00" arrival="245.00" arrivalLane="51i_0" arrivalPos="10.00" arrivalSpeed="11.70" duration="97.00" routeLength="1015.10" waitSteps="0" timeLoss="20.58" rerouteNo="0" devices="tripinfo_left_37" vType="typeWE" speedFactor="1.00" vaporized=""/>
    <tripinfo id="left_40" depart="153.00" departLane="52o_0" departPos="5.10" departSpeed="0.00" departDelay="0.00" arrival="247.00" arrivalLane="51i_0" arrivalPos="10.00" arrivalSpeed="11.51" duration="94.00" routeLength="1015.10" waitSteps="0" timeLoss="17.28" rerouteNo="0" devices="tripinfo_left_40" vType="typeWE" speedFactor="1.00" vaporized=""/>
    <tripinfo id="right_44" depart="160.00" departLane="51o_0" departPos="5.10" departSpeed="0.00" departDelay="0.00" arrival="251.00" arrivalLane="52i_0" arrivalPos="10.00" arrivalSpeed="11.19" duration="91.00" routeLength="1015.10" waitSteps="0" timeLoss="15.09" rerouteNo="0" devices="tripinfo_right_44" vType="typeWE" speedFactor="1.00" vaporized=""/>
    <tripinfo id="right_45" depart="165.00" departLane="51o_0" departPos="5.10" departSpeed="0.00" departDelay="4.00" arrival="256.00" arrivalLane="52i_0" arrivalPos="10.00" arrivalSpeed="11.36" duration="91.00" routeLength="1015.10" waitSteps="0" timeLoss="14.71" rerouteNo="0" devices="tripinfo_right_45" vType="typeWE" speedFactor="1.00" vaporized=""/>
    <tripinfo id="left_47" depart="165.00" departLane="52o_0" departPos="5.10" departSpeed="0.00" departDelay="0.00" arrival="257.00" arrivalLane="51i_0" arrivalPos="10.00" arrivalSpeed="11.81" duration="92.00" routeLength="1015.10" waitSteps="0" timeLoss="15.63" rerouteNo="0" devices="tripinfo_left_47" vType="typeWE" speedFactor="1.00" vaporized=""/>
    <tripinfo id="right_48" depart="170.00" departLane="51o_0" departPos="5.10" departSpeed="0.00" departDelay="2.00" arrival="260.00" arrivalLane="52i_0" arrivalPos="10.00" arrivalSpeed="11.52" duration="90.00" routeLength="1015.10" waitSteps="0" timeLoss="13.71" rerouteNo="0" devices="tripinfo_right_48" vType="typeWE" speedFactor="1.00" vaporized=""/>
    <tripinfo id="right_50" depart="175.00" departLane="51o_0" departPos="5.10" departSpeed="0.00" departDelay="1.00" arrival="267.00" arrivalLane="52i_0" arrivalPos="10.00" arrivalSpeed="11.50" duration="92.00" routeLength="1015.10" waitSteps="0" timeLoss="15.72" rerouteNo="0" devices="tripinfo_right_50" vType="typeWE" speedFactor="1.00" vaporized=""/>
    <tripinfo id="left_52" depart="185.00" departLane="52o_0" departPos="5.10" departSpeed="0.00" departDelay="0.00" arrival="276.00" arrivalLane="51i_0" arrivalPos="10.00" arrivalSpeed="11.63" duration="91.00" routeLength="1015.10" waitSteps="0" timeLoss="14.76" rerouteNo="0" devices="tripinfo_left_52" vType="typeWE" speedFactor="1.00" vaporized=""/>
    <tripinfo id="left_53" depart="190.00" departLane="52o_0" departPos="5.10" departSpeed="0.00" departDelay="4.00" arrival="281.00" arrivalLane="51i_0" arrivalPos="10.00" arrivalSpeed="11.22" duration="91.00" routeLength="1015.10" waitSteps="0" timeLoss="14.77" rerouteNo="0" devices="tripinfo_left_53" vType="typeWE" speedFactor="1.00" vaporized=""/>
    <tripinfo id="right_55" depart="195.00" departLane="51o_0" departPos="5.10" departSpeed="0.00" departDelay="0.00" arrival="286.00" arrivalLane="52i_0" arrivalPos="10.00" arrivalSpeed="11.39" duration="91.00" routeLength="1015.10" waitSteps="0" timeLoss="14.87" rerouteNo="0" devices="tripinfo_right_55" vType="typeWE" speedFactor="1.00" vaporized=""/>
    <tripinfo id="up_32" depart="138.00" departLane="53o_0" departPos="5.10" departSpeed="0.00" departDelay="1.00" arrival="296.00" arrivalLane="54i_0" arrivalPos="10.00" arrivalSpeed="11.58" duration="158.00" routeLength="1015.10" waitSteps="60" timeLoss="81.82" rerouteNo="0" devices="tripinfo_up_32" vType="typeNS" speedFactor="1.00" vaporized=""/>
    <tripinfo id="down_36" depart="146.00" departLane="54o_0" departPos="5.10" departSpeed="0.00" departDelay="0.00" arrival="296.00" arrivalLane="53i_0" arrivalPos="10.00" arrivalSpeed="11.53" duration="150.00" routeLength="1015.10" waitSteps="49" timeLoss="73.59" rerouteNo="0" devices="tripinfo_down_36" vType="typeNS" speedFactor="1.00" vaporized=""/>
    <tripinfo id="down_41" depart="153.00" departLane="54o_0" departPos="5.10" departSpeed="0.00" departDelay="0.00" arrival="298.00" arrivalLane="53i_0" arrivalPos="10.00" arrivalSpeed="11.33" duration="145.00" routeLength="1015.10" waitSteps="42" timeLoss="69.19" rerouteNo="0" devices="tripinfo_down_41" vType="typeNS" speedFactor="1.00" vaporized=""/>
    <tripinfo id="up_35" depart="144.00" departLane="53o_0" departPos="5.10" departSpeed="0.00" departDelay="0.00" arrival="299.00" arrivalLane="54i_0" arrivalPos="10.00" arrivalSpeed="11.38" duration="155.00" routeLength="1015.10" waitSteps="51" timeLoss="78.93" rerouteNo="0" devices="tripinfo_up_35" vType="typeNS" speedFactor="1.00" vaporized=""/>
    <tripinfo id="down_42" depart="158.00" departLane="54o_0" departPos="5.10" departSpeed="0.00" departDelay="0.00" arrival="300.00" arrivalLane="53i_0" arrivalPos="10.00" arrivalSpeed="11.48" duration="142.00" routeLength="1015.10" waitSteps="39" timeLoss="66.16" rerouteNo="0" devices="tripinfo_down_42" vType="typeNS" speedFactor="1.00" vaporized=""/>
    <tripinfo id="up_38" depart="149.00" departLane="53o_0" departPos="5.10" departSpeed="0.00" departDelay="2.00" arrival="301.00" arrivalLane="54i_0" arrivalPos="10.00" arrivalSpeed="11.35" duration="152.00" routeLength="1015.10" waitSteps="47" timeLoss="75.69" rerouteNo="0" devices="tripinfo_up_38" vType="typeNS" speedFactor="1.00" vaporized=""/>
    <tripinfo id="up_39" depart="155.00" departLane="53o_0" departPos="5.10" departSpeed="0.00" departDelay="3.00" arrival="303.00" arrivalLane="54i_0" arrivalPos="10.00" arrivalSpeed="11.50" duration="148.00" routeLength="1015.10" waitSteps="44" timeLoss="71.54" rerouteNo="0" devices="tripinfo_up_39" vType="typeNS" speedFactor="1.00" vaporized=""/>
    <tripinfo id="down_43" depart="163.00" departLane="54o_0" departPos="5.10" departSpeed="0.00" departDelay="4.00" arrival="303.00" arrivalLane="53i_0" arrivalPos="10.00" arrivalSpeed="11.86" duration="140.00" routeLength="1015.10" waitSteps="35" timeLoss="63.37" rerouteNo="0" devices="tripinfo_down_43" vType="typeNS" speedFactor="1.00" vaporized=""/>
    <tripinfo id="up_51" depart="178.00" departLane="53o_0" departPos="5.10" departSpeed="0.00" departDelay="0.00" arrival="305.00" arrivalLane="54i_0" arrivalPos="10.00" arrivalSpeed="11.84" duration="127.00" routeLength="1015.10" waitSteps="23" timeLoss="50.38" rerouteNo="0" devices="tripinfo_up_51" vType="typeNS" speedFactor="1.00" vaporized=""/>
    <tripinfo id="down_46" depart="168.00" departLane="54o_0" departPos="5.10" departSpeed="0.00" departDelay="5.00" arrival="305.00" arrivalLane="53i_0" arrivalPos="10.00" arrivalSpeed="11.55" duration="137.00" routeLength="1015.10" waitSteps="33" timeLoss="60.33" rerouteNo="0" devices="tripinfo_down_46" vType="typeNS" speedFactor="1.00" vaporized=""/>
    <tripinfo id="down_49" depart="173.00" departLane="54o_0" departPos="5.10" departSpeed="0.00" departDelay="1.00" arrival="306.00" arrivalLane="53i_0" arrivalPos="10.00" arrivalSpeed="11.36" duration="133.00" routeLength="1015.10" waitSteps="28" timeLoss="57.09" rerouteNo="0" devices="tripinfo_down_49" vType="typeNS" speedFactor="1.00" vaporized=""/>
    <tripinfo id="up_54" depart="190.00" departLane="53o_0" departPos="5.10" departSpeed="0.00" departDelay="2.00" arrival="307.00" arrivalLane="54i_0" arrivalPos="10.00" arrivalSpeed="11.29" duration="117.00" routeLength="1015.10" waitSteps="10" timeLoss="40.45" rerouteNo="0" devices="tripinfo_up_54" vType="typeNS" speedFactor="1.00" vaporized=""/>
    <tripinfo id="up_61" depart="215.00" departLane="53o_0" departPos="5.10" departSpeed="0.00" departDelay="0.00" arrival="308.00" arrivalLane="54i_0" arrivalPos="10.00" arrivalSpeed="10.96" duration="93.00" routeLength="1015.10" waitSteps="0" timeLoss="17.01" rerouteNo="0" devices="tripinfo_up_61" vType="typeNS" speedFactor="1.00" vaporized=""/>
    <tripinfo id="down_56" depart="197.00" departLane="54o_0" departPos="5.10" departSpeed="0.00" departDelay="0.00" arrival="309.00" arrivalLane="53i_0" arrivalPos="10.00" arrivalSpeed="11.77" duration="112.00" routeLength="1015.10" waitSteps="6" timeLoss="35.27" rerouteNo="0" devices="tripinfo_down_56" vType="typeNS" speedFactor="1.00" vaporized=""/>
    <tripinfo id="down_57" depart="202.00" departLane="54o_0" departPos="5.10" departSpeed="0.00" departDelay="1.00" arrival="310.00" arrivalLane="53i_0" arrivalPos="10.00" arrivalSpeed="11.70" duration="108.00" routeLength="1015.10" waitSteps="3" timeLoss="32.04" rerouteNo="0" devices="tripinfo_down_57" vType="typeNS" speedFactor="1.00" vaporized=""/>
    <tripinfo id="up_64" depart="220.00" departLane="53o_0" departPos="5.10" departSpeed="0.00" departDelay="1.00" arrival="312.00" arrivalLane="54i_0" arrivalPos="10.00" arrivalSpeed="11.36" duration="92.00" routeLength="1015.10" waitSteps="0" timeLoss="15.77" rerouteNo="0" devices="tripinfo_up_64" vType="typeNS" speedFactor="1.00" vaporized=""/>
    <tripinfo id="down_60" depart="208.00" departLane="54o_0" departPos="5.10" departSpeed="0.00" departDelay="0.00" arrival="312.00" arrivalLane="53i_0" arrivalPos="10.00" arrivalSpeed="11.42" duration="104.00" routeLength="1015.10" waitSteps="0" timeLoss="27.87" rerouteNo="0" devices="tripinfo_down_60" vType="typeNS" speedFactor="1.00" vaporized=""/>
    <tripinfo id="down_63" depart="219.00" departLane="54o_0" departPos="5.10" departSpeed="0.00" departDelay="0.00" arrival="314.00" arrivalLane="53i_0" arrivalPos="10.00" arrivalSpeed="11.76" duration="95.00" routeLength="1015.10" waitSteps="0" timeLoss="18.66" rerouteNo="0" devices="tripinfo_down_63" vType="typeNS" speedFactor="1.00" vaporized=""/>
    <tripinfo id="up_66" depart="228.00" departLane="53o_0" departPos="5.10" departSpeed="0.00" departDelay="0.00" arrival="319.00" arrivalLane="54i_0" arrivalPos="10.00" arrivalSpeed="11.50" duration="91.00" routeLength="1015.10" waitSteps="0" timeLoss="15.04" rerouteNo="0" devices="tripinfo_up_66" vType="typeNS" speedFactor="1.00" vaporized=""/>
    <tripinfo id="down_68" depart="231.00" departLane="54o_0" departPos="5.10" departSpeed="0.00" departDelay="0.00" arrival="323.00" arrivalLane="53i_0" arrivalPos="10.00" arrivalSpeed="11.20" duration="92.00" routeLength="1015.10" waitSteps="0" timeLoss="15.88" rerouteNo="0" devices="tripinfo_down_68" vType="typeNS" speedFactor="1.00" vaporized=""/>
    <tripinfo id="up_67" depart="233.00" departLane="53o_0" departPos="5.10" departSpeed="0.00" departDelay="3.00" arrival="324.00" arrivalLane="54i_0" arrivalPos="10.00" arrivalSpeed="11.77" duration="91.00" routeLength="1015.10" waitSteps="0" timeLoss="14.93" rerouteNo="0" devices="tripinfo_up_67" vType="typeNS" speedFactor="1.00" vaporized=""/>
    <tripinfo id="up_71" depart="238.00" departLane="53o_0" departPos="5.10" departSpeed="0.00" departDelay="2.00" arrival="329.00" arrivalLane="54i_0" arrivalPos="10.00" arrivalSpeed="11.45" duration="91.00" routeLength="1015.10" waitSteps="0" timeLoss="14.23" rerouteNo="0" devices="tripinfo_up_71" vType="typeNS" speedFactor="1.00" vaporized=""/>
    <tripinfo id="up_72" depart="243.00" departLane="53o_0" departPos="5.10" departSpeed="0.00" departDelay="6.00" arrival="334.00" arrivalLane="54i_0" arrivalPos="10.00" arrivalSpeed="11.31" duration="91.00" routeLength="1015.10" waitSteps="0" timeLoss="14.74" rerouteNo="0" devices="tripinfo_up_72" vType="typeNS" speedFactor="1.00" vaporized=""/>
    <tripinfo id="up_75" depart="249.00" departLane="53o_0" departPos="5.10" departSpeed="0.00" departDelay="0.00" arrival="341.00" arrivalLane="54i_0" arrivalPos="10.00" arrivalSpeed="11.58" duration="92.00" routeLength="1015.10" waitSteps="0" timeLoss="15.24" rerouteNo="0" devices="tripinfo_up_75" vType="typeNS" speedFactor="1.00" vaporized=""/>
    <tripinfo id="down_76" depart="251.00" departLane="54o_0" departPos="5.10" departSpeed="0.00" departDelay="0.00" arrival="343.00" arrivalLane="53i_0" arrivalPos="10.00" arrivalSpeed="11.64" duration="92.00" routeLength="1015.10" waitSteps="0" timeLoss="15.77" rerouteNo="0" devices="tripinfo_down_76" vType="typeNS" speedFactor="1.00" vaporized=""/>
    <tripinfo id="left_59" depart="205.00" departLane="52o_0" departPos="5.10" departSpeed="0.00" departDelay="0.00" arrival="356.00" arrivalLane="51i_0" arrivalPos="10.00" arrivalSpeed="11.02" duration="151.00" routeLength="1015.10" waitSteps="49" timeLoss="74.99" rerouteNo="0" devices="tripinfo_left_59" vType="typeWE" speedFactor="1.00" vaporized=""/>
    <tripinfo id="right_58" depart="205.00" departLane="51o_0" departPos="5.10" departSpeed="0.00" departDelay="0.00" arrival="356.00" arrivalLane="52i_0" arrivalPos="10.00" arrivalSpeed="11.29" duration="151.00" routeLength="1015.10" waitSteps="49" timeLoss="74.95" rerouteNo="0" devices="tripinfo_right_58" vType="typeWE" speedFactor="1.00" vaporized=""/>
    <tripinfo id="left_62" depart="216.00" departLane="52o_0" departPos="5.10" departSpeed="0.00" departDelay="0.00" arrival="359.00" arrivalLane="51i_0" arrivalPos="10.00" arrivalSpeed="11.61" duration="143.00" routeLength="1015.10" waitSteps="39" timeLoss="66.58" rerouteNo="0" devices="tripinfo_left_62" vType="typeWE" speedFactor="1.00" vaporized=""/>
    <tripinfo id="right_69" depart="236.00" departLane="51o_0" departPos="5.10" departSpeed="0.00" departDelay="1.00" arrival="359.00" arrivalLane="52i_0" arrivalPos="10.00" arrivalSpeed="11.52" duration="123.00" routeLength="1015.10" waitSteps="20" timeLoss="46.63" rerouteNo="0" devices="tripinfo_right_69" vType="typeWE" speedFactor="1.00" vaporized=""/>
    <tripinfo id="left_65" depart="227.00" departLane="52o_0" departPos="5.10" departSpeed="0.00" departDelay="0.00" arrival="361.00" arrivalLane="51i_0" arrivalPos="10.00" arrivalSpeed="11.55" duration="134.00" routeLength="1015.10" waitSteps="31" timeLoss="57.67" rerouteNo="0" devices="tripinfo_left_65" vType="typeWE" speedFactor="1.00" vaporized=""/>
    <tripinfo id="right_70" depart="247.00" departLane="51o_0" departPos="5.10" departSpeed="0.00" departDelay="11.00" arrival="361.00" arrivalLane="52i_0" arrivalPos="10.00" arrivalSpeed="11.54" duration="114.00" routeLength="1015.10" waitSteps="9" timeLoss="37.45" rerouteNo="0" devices="tripinfo_right_70" vType="typeWE" speedFactor="1.00" vaporized=""/>
    <tripinfo id="right_80" depart="257.00" departLane="51o_0" departPos="5.10" departSpeed="0.00" departDelay="0.00" arrival="362.00" arrivalLane="52i_0" arrivalPos="10.00" arrivalSpeed="10.77" duration="105.00" routeLength="1015.10" waitSteps="1" timeLoss="28.89" rerouteNo="0" devices="tripinfo_right_80" vType="typeWE" speedFactor="1.00" vaporized=""/>
    <tripinfo id="left_73" depart="241.00" departLane="52o_0" departPos="5.10" departSpeed="0.00" departDelay="0.00" arrival="363.00" arrivalLane="51i_0" arrivalPos="10.00" arrivalSpeed="11.60" duration="122.00" routeLength="1015.10" waitSteps="17" timeLoss="45.47" rerouteNo="0" devices="tripinfo_left_73" vType="typeWE" speedFactor="1.00" vaporized=""/>
    <tripinfo id="left_74" depart="247.00" departLane="52o_0" departPos="5.10" departSpeed="0.00" departDelay="0.00" arrival="364.00" arrivalLane="51i_0" arrivalPos="10.00" arrivalSpeed="11.07" duration="117.00" routeLength="1015.10" waitSteps="13" timeLoss="40.98" rerouteNo="0" devices="tripinfo_left_74" vType="typeWE" speedFactor="1.00" vaporized=""/>
    <tripinfo id="right_82" depart="262.00" departLane="51o_0" departPos="5.10" departSpeed="0.00" departDelay="1.00" arrival="365.00" arrivalLane="52i_0" arrivalPos="10.00" arrivalSpeed="11.56" duration="103.00" routeLength="1015.10" waitSteps="0" timeLoss="26.42" rerouteNo="0" devices="tripinfo_right_82" vType="typeWE" speedFactor="1.00" vaporized=""/>
    <tripinfo id="right_85" depart="269.00" departLane="51o_0" departPos="5.10" departSpeed="0.00" departDelay="0.00" arrival="366.00" arrivalLane="52i_0" arrivalPos="10.00" arrivalSpeed="10.77" duration="97.00" routeLength="1015.10" waitSteps="0" timeLoss="20.95" rerouteNo="0" devices="tripinfo_right_85" vType="typeWE" speedFactor="1.00" vaporized=""/>
    <tripinfo id="left_77" depart="256.00" departLane="52o_0" departPos="5.10" departSpeed="0.00" departDelay="2.00" arrival="366.00" arrivalLane="51i_0" arrivalPos="10.00" arrivalSpeed="11.28" duration="110.00" routeLength="1015.10" waitSteps="5" timeLoss="34.14" rerouteNo="0" devices="tripinfo_left_77" vType="typeWE" speedFactor="1.00" vaporized=""/>