<?xml version="1.0" encoding="UTF-8"?>

<!-- generated on Mon Apr 30 16:35:40 2018 by SUMO Version 0.32.0
<?xml version="1.0" encoding="UTF-8"?>

<configuration xmlns:xsi="http://www.w3.org/2001/XMLSchema-instance" xsi:noNamespaceSchemaLocation="http://sumo.dlr.de/xsd/sumoConfiguration.xsd">

    <input>
        <net-file value="data/cross.net.xml"/>
        <route-files value="data/cross.rou.xml"/>
        <additional-files value="data/cross.det.xml"/>
    </input>

    <output>
        <summary-output value="data/cross.out"/>
        <tripinfo-output value="output/tripinfo28.xml"/>
    </output>

    <time>
        <begin value="0"/>
    </time>

    <report>
        <verbose value="true"/>
        <duration-log.statistics value="true"/>
        <no-step-log value="true"/>
    </report>

    <traci_server>
        <remote-port value="42469"/>
    </traci_server>

</configuration>
-->

<tripinfos xmlns:xsi="http://www.w3.org/2001/XMLSchema-instance" xsi:noNamespaceSchemaLocation="http://sumo.dlr.de/xsd/tripinfo_file.xsd">
    <tripinfo id="up_0" depart="0.00" departLane="53o_0" departPos="5.10" departSpeed="0.00" departDelay="0.00" arrival="92.00" arrivalLane="54i_0" arrivalPos="10.00" arrivalSpeed="11.53" duration="92.00" routeLength="1015.10" waitSteps="0" timeLoss="15.37" rerouteNo="0" devices="tripinfo_up_0" vType="typeNS" speedFactor="1.00" vaporized=""/>
    <tripinfo id="down_1" depart="3.00" departLane="54o_0" departPos="5.10" departSpeed="0.00" departDelay="0.00" arrival="94.00" arrivalLane="53i_0" arrivalPos="10.00" arrivalSpeed="11.30" duration="91.00" routeLength="1015.10" waitSteps="0" timeLoss="14.24" rerouteNo="0" devices="tripinfo_down_1" vType="typeNS" speedFactor="1.00" vaporized=""/>
    <tripinfo id="up_3" depart="7.00" departLane="53o_0" departPos="5.10" departSpeed="0.00" departDelay="0.00" arrival="98.00" arrivalLane="54i_0" arrivalPos="10.00" arrivalSpeed="11.52" duration="91.00" routeLength="1015.10" waitSteps="0" timeLoss="14.78" rerouteNo="0" devices="tripinfo_up_3" vType="typeNS" speedFactor="1.00" vaporized=""/>
    <tripinfo id="down_5" depart="10.00" departLane="54o_0" departPos="5.10" departSpeed="0.00" departDelay="0.00" arrival="101.00" arrivalLane="53i_0" arrivalPos="10.00" arrivalSpeed="11.25" duration="91.00" routeLength="1015.10" waitSteps="0" timeLoss="14.99" rerouteNo="0" devices="tripinfo_down_5" vType="typeNS" speedFactor="1.00" vaporized=""/>
    <tripinfo id="up_4" depart="12.00" departLane="53o_0" departPos="5.10" departSpeed="0.00" departDelay="3.00" arrival="102.00" arrivalLane="54i_0" arrivalPos="10.00" arrivalSpeed="11.43" duration="90.00" routeLength="1015.10" waitSteps="0" timeLoss="13.89" rerouteNo="0" devices="tripinfo_up_4" vType="typeNS" speedFactor="1.00" vaporized=""/>
    <tripinfo id="down_7" depart="15.00" departLane="54o_0" departPos="5.10" departSpeed="0.00" departDelay="4.00" arrival="106.00" arrivalLane="53i_0" arrivalPos="10.00" arrivalSpeed="11.45" duration="91.00" routeLength="1015.10" waitSteps="0" timeLoss="14.60" rerouteNo="0" devices="tripinfo_down_7" vType="typeNS" speedFactor="1.00" vaporized=""/>
    <tripinfo id="right_2" depart="7.00" departLane="51o_0" departPos="5.10" departSpeed="0.00" departDelay="0.00" arrival="116.00" arrivalLane="52i_0" arrivalPos="10.00" arrivalSpeed="11.36" duration="109.00" routeLength="1015.10" waitSteps="7" timeLoss="33.10" rerouteNo="0" devices="tripinfo_right_2" vType="typeWE" speedFactor="1.00" vaporized=""/>
    <tripinfo id="left_12" depart="24.00" departLane="52o_0" departPos="5.10" departSpeed="0.00" departDelay="0.00" arrival="116.00" arrivalLane="51i_0" arrivalPos="10.00" arrivalSpeed="11.42" duration="92.00" routeLength="1015.10" waitSteps="0" timeLoss="15.30" rerouteNo="0" devices="tripinfo_left_12" vType="typeWE" speedFactor="1.00" vaporized=""/>
    <tripinfo id="right_6" depart="12.00" departLane="51o_0" departPos="5.10" departSpeed="0.00" departDelay="1.00" arrival="118.00" arrivalLane="52i_0" arrivalPos="10.00" arrivalSpeed="11.68" duration="106.00" routeLength="1015.10" waitSteps="4" timeLoss="30.21" rerouteNo="0" devices="tripinfo_right_6" vType="typeWE" speedFactor="1.00" vaporized=""/>
    <tripinfo id="right_9" depart="19.00" departLane="51o_0" departPos="5.10" departSpeed="0.00" departDelay="0.00" arrival="120.00" arrivalLane="52i_0" arrivalPos="10.00" arrivalSpeed="11.19" duration="101.00" routeLength="1015.10" waitSteps="0" timeLoss="25.27" rerouteNo="0" devices="tripinfo_right_9" vType="typeWE" speedFactor="1.00" vaporized=""/>
    <tripinfo id="left_14" depart="29.00" departLane="52o_0" departPos="5.10" departSpeed="0.00" departDelay="0.00" arrival="121.00" arrivalLane="51i_0" arrivalPos="10.00" arrivalSpeed="11.28" duration="92.00" routeLength="1015.10" waitSteps="0" timeLoss="15.46" rerouteNo="0" devices="tripinfo_left_14" vType="typeWE" speedFactor="1.00" vaporized=""/>
    <tripinfo id="right_10" depart="24.00" departLane="51o_0" departPos="5.10" departSpeed="0.00" departDelay="4.00" arrival="122.00" arrivalLane="52i_0" arrivalPos="10.00" arrivalSpeed="11.35" duration="98.00" routeLength="1015.10" waitSteps="0" timeLoss="22.19" rerouteNo="0" devices="tripinfo_right_10" vType="typeWE" speedFactor="1.00" vaporized=""/>
    <tripinfo id="right_16" depart="33.00" departLane="51o_0" departPos="5.10" departSpeed="0.00" departDelay="0.00" arrival="124.00" arrivalLane="52i_0" arrivalPos="10.00" arrivalSpeed="11.75" duration="91.00" routeLength="1015.10" waitSteps="0" timeLoss="15.06" rerouteNo="0" devices="tripinfo_right_16" vType="typeWE" speedFactor="1.00" vaporized=""/>
    <tripinfo id="left_20" depart="47.00" departLane="52o_0" departPos="5.10" departSpeed="0.00" departDelay="0.00" arrival="139.00" arrivalLane="51i_0" arrivalPos="10.00" arrivalSpeed="11.63" duration="92.00" routeLength="1015.10" waitSteps="0" timeLoss="15.73" rerouteNo="0" devices="tripinfo_left_20" vType="typeWE" speedFactor="1.00" vaporized=""/>
    <tripinfo id="left_23" depart="53.00" departLane="52o_0" departPos="5.10" departSpeed="0.00" departDelay="2.00" arrival="145.00" arrivalLane="51i_0" arrivalPos="10.00" arrivalSpeed="11.45" duration="92.00" routeLength="1015.10" waitSteps="0" timeLoss="15.71" rerouteNo="0" devices="tripinfo_left_23" vType="typeWE" speedFactor="1.00" vaporized=""/>
    <tripinfo id="right_25" depart="58.00" departLane="51o_0" departPos="5.10" departSpeed="0.00" departDelay="0.00" arrival="149.00" arrivalLane="52i_0" arrivalPos="10.00" arrivalSpeed="11.44" duration="91.00" routeLength="1015.10" waitSteps="0" timeLoss="14.23" rerouteNo="0" devices="tripinfo_right_25" vType="typeWE" speedFactor="1.00" vaporized=""/>
    <tripinfo id="right_30" depart="73.00" departLane="51o_0" departPos="5.10" departSpeed="0.00" departDelay="0.00" arrival="164.00" arrivalLane="52i_0" arrivalPos="10.00" arrivalSpeed="11.64" duration="91.00" routeLength="1015.10" waitSteps="0" timeLoss="14.44" rerouteNo="0" devices="tripinfo_right_30" vType="typeWE" speedFactor="1.00" vaporized=""/>
    <tripinfo id="left_33" depart="74.00" departLane="52o_0" departPos="5.10" departSpeed="0.00" departDelay="0.00" arrival="165.00" arrivalLane="51i_0" arrivalPos="10.00" arrivalSpeed="11.33" duration="91.00" routeLength="1015.10" waitSteps="0" timeLoss="14.68" rerouteNo="0" devices="tripinfo_left_33" vType="typeWE" speedFactor="1.00" vaporized=""/>
    <tripinfo id="up_8" depart="17.00" departLane="53o_0" departPos="5.10" departSpeed="0.00" departDelay="6.00" arrival="176.00" arrivalLane="54i_0" arrivalPos="10.00" arrivalSpeed="11.50" duration="159.00" routeLength="1015.10" waitSteps="60" timeLoss="83.02" rerouteNo="0" devices="tripinfo_up_8" vType="typeNS" speedFactor="1.00" vaporized=""/>
    <tripinfo id="down_13" depart="24.00" departLane="54o_0" departPos="5.10" departSpeed="0.00" departDelay="0.00" arrival="176.00" arrivalLane="53i_0" arrivalPos="10.00" arrivalSpeed="11.43" duration="152.00" routeLength="1015.10" waitSteps="50" timeLoss="75.86" rerouteNo="0" devices="tripinfo_down_13" vType="typeNS" speedFactor="1.00" vaporized=""/>
    <tripinfo id="up_11" depart="22.00" departLane="53o_0" departPos="5.10" departSpeed="0.00" departDelay="1.00" arrival="178.00" arrivalLane="54i_0" arrivalPos="10.00" arrivalSpeed="11.58" duration="156.00" routeLength="1015.10" waitSteps="53" timeLoss="79.94" rerouteNo="0" devices="tripinfo_up_11" vType="typeNS" speedFactor="1.00" vaporized=""/>
    <tripinfo id="down_17" depart="37.00" departLane="54o_0" departPos="5.10" departSpeed="0.00" departDelay="0.00" arrival="178.00" arrivalLane="53i_0" arrivalPos="10.00" arrivalSpeed="11.55" duration="141.00" routeLength="1015.10" waitSteps="38" timeLoss="64.62" rerouteNo="0" devices="tripinfo_down_17" vType="typeNS" speedFactor="1.00" vaporized=""/>
    <tripinfo id="up_15" depart="30.00" departLane="53o_0" departPos="5.10" departSpeed="0.00" departDelay="0.00" arrival="180.00" arrivalLane="54i_0" arrivalPos="10.00" arrivalSpeed="11.60" duration="150.00" routeLength="1015.10" waitSteps="46" timeLoss="73.70" rerouteNo="0" devices="tripinfo_up_15" vType="typeNS" speedFactor="1.00" vaporized=""/>
    <tripinfo id="down_18" depart="42.00" departLane="54o_0" departPos="5.10" departSpeed="0.00" departDelay="0.00" arrival="180.00" arrivalLane="53i_0" arrivalPos="10.00" arrivalSpeed="11.44" duration="138.00" routeLength="1015.10" waitSteps="35" timeLoss="62.13" rerouteNo="0" devices="tripinfo_down_18" vType="typeNS" speedFactor="1.00" vaporized=""/>
    <tripinfo id="up_19" depart="43.00" departLane="53o_0" departPos="5.10" departSpeed="0.00" departDelay="0.00" arrival="182.00" arrivalLane="54i_0" arrivalPos="10.00" arrivalSpeed="11.20" duration="139.00" routeLength="1015.10" waitSteps="36" timeLoss="62.95" rerouteNo="0" devices="tripinfo_up_19" vType="typeNS" speedFactor="1.00" vaporized=""/>
    <tripinfo id="down_21" depart="49.00" departLane="54o_0" departPos="5.10" departSpeed="0.00" departDelay="0.00" arrival="183.00" arrivalLane="53i_0" arrivalPos="10.00" arrivalSpeed="11.60" duration="134.00" routeLength="1015.10" waitSteps="28" timeLoss="57.51" rerouteNo="0" devices="tripinfo_down_21" vType="typeNS" speedFactor="1.00" vaporized=""/>
    <tripinfo id="down_28" depart="65.00" departLane="54o_0" departPos="5.10" departSpeed="0.00" departDelay="0.00" arrival="184.00" arrivalLane="53i_0" arrivalPos="10.00" arrivalSpeed="10.95" duration="119.00" routeLength="1015.10" waitSteps="14" timeLoss="43.01" rerouteNo="0" devices="tripinfo_down_28" vType="typeNS" speedFactor="1.00" vaporized=""/>
    <tripinfo id="up_22" depart="50.00" departLane="53o_0" departPos="5.10" departSpeed="0.00" departDelay="0.00" arrival="184.00" arrivalLane="54i_0" arrivalPos="10.00" arrivalSpeed="11.60" duration="134.00" routeLength="1015.10" waitSteps="29" timeLoss="57.56" rerouteNo="0" devices="tripinfo_up_22" vType="typeNS" speedFactor="1.00" vaporized=""/>
    <tripinfo id="up_24" depart="56.00" departLane="53o_0" departPos="5.10" departSpeed="0.00" departDelay="0.00" arrival="187.00" arrivalLane="54i_0" arrivalPos="10.00" arrivalSpeed="11.59" duration="131.00" routeLength="1015.10" waitSteps="26" timeLoss="54.32" rerouteNo="0" devices="tripinfo_up_24" vType="typeNS" speedFactor="1.00" vaporized=""/>
    <tripinfo id="down_29" depart="71.00" departLane="54o_0" departPos="5.10" departSpeed="0.00" departDelay="0.00" arrival="187.00" arrivalLane="53i_0" arrivalPos="10.00" arrivalSpeed="11.52" duration="116.00" routeLength="1015.10" waitSteps="11" timeLoss="39.44" rerouteNo="0" devices="tripinfo_down_29" vType="typeNS" speedFactor="1.00" vaporized=""/>
    <tripinfo id="up_26" depart="62.00" departLane="53o_0" departPos="5.10" departSpeed="0.00" departDelay="0.00" arrival="188.00" arrivalLane="54i_0" arrivalPos="10.00" arrivalSpeed="11.49" duration="126.00" routeLength="1015.10" waitSteps="21" timeLoss="50.11" rerouteNo="0" devices="tripinfo_up_26" vType="typeNS" speedFactor="1.00" vaporized=""/>
    <tripinfo id="down_31" depart="76.00" departLane="54o_0" departPos="5.10" departSpeed="0.00" departDelay="3.00" arrival="189.00" arrivalLane="53i_0" arrivalPos="10.00" arrivalSpeed="11.33" duration="113.00" routeLength="1015.10" waitSteps="8" timeLoss="36.26" rerouteNo="0" devices="tripinfo_down_31" vType="typeNS" speedFactor="1.00" vaporized=""/>
    <tripinfo id="up_27" depart="67.00" departLane="53o_0" departPos="5.10" departSpeed="0.00" departDelay="4.00" arrival="190.00" arrivalLane="54i_0" arrivalPos="10.00" arrivalSpeed="11.34" duration="123.00" routeLength="1015.10" waitSteps="19" timeLoss="46.89" rerouteNo="0" devices="tripinfo_up_27" vType="typeNS" speedFactor="1.00" vaporized=""/>
    <tripinfo id="down_44" depart="94.00" departLane="54o_0" departPos="5.10" departSpeed="0.00" departDelay="0.00" arrival="190.00" arrivalLane="53i_0" arrivalPos="10.00" arrivalSpeed="11.71" duration="96.00" routeLength="1015.10" waitSteps="0" timeLoss="19.98" rerouteNo="0" devices="tripinfo_down_44" vType="typeNS" speedFactor="1.00" vaporized=""/>
    <tripinfo id="up_35" depart="81.00" departLane="53o_0" departPos="5.10" departSpeed="0.00" departDelay="0.00" arrival="192.00" arrivalLane="54i_0" arrivalPos="10.00" arrivalSpeed="11.76" duration="111.00" routeLength="1015.10" waitSteps="5" timeLoss="34.64" rerouteNo="0" devices="tripinfo_up_35" vType="typeNS" speedFactor="1.00" vaporized=""/>
    <tripinfo id="up_37" depart="86.00" departLane="53o_0" departPos="5.10" departSpeed="0.00" departDelay="3.00" arrival="194.00" arrivalLane="54i_0" arrivalPos="10.00" arrivalSpeed="11.60" duration="108.00" routeLength="1015.10" waitSteps="1" timeLoss="31.72" rerouteNo="0" devices="tripinfo_up_37" vType="typeNS" speedFactor="1.00" vaporized=""/>
    <tripinfo id="up_40" depart="91.00" departLane="53o_0" departPos="5.10" departSpeed="0.00" departDelay="4.00" arrival="196.00" arrivalLane="54i_0" arrivalPos="10.00" arrivalSpeed="11.79" duration="105.00" routeLength="1015.10" waitSteps="0" timeLoss="28.85" rerouteNo="0" devices="tripinfo_up_40" vType="typeNS" speedFactor="1.00" vaporized=""/>
    <tripinfo id="up_46" depart="97.00" departLane="53o_0" departPos="5.10" departSpeed="0.00" departDelay="0.00" arrival="198.00" arrivalLane="54i_0" arrivalPos="10.00" arrivalSpeed="11.55" duration="101.00" routeLength="1015.10" waitSteps="0" timeLoss="24.45" rerouteNo="0" devices="tripinfo_up_46" vType="typeNS" speedFactor="1.00" vaporized=""/>
    <tripinfo id="down_50" depart="108.00" departLane="54o_0" departPos="5.10" departSpeed="0.00" departDelay="0.00" arrival="198.00" arrivalLane="53i_0" arrivalPos="10.00" arrivalSpeed="11.73" duration="90.00" routeLength="1015.10" waitSteps="0" timeLoss="13.84" rerouteNo="0" devices="tripinfo_down_50" vType="typeNS" speedFactor="1.00" vaporized=""/>
    <tripinfo id="up_48" depart="106.00" departLane="53o_0" departPos="5.10" departSpeed="0.00" departDelay="1.00" arrival="200.00" arrivalLane="54i_0" arrivalPos="10.00" arrivalSpeed="11.64" duration="94.00" routeLength="1015.10" waitSteps="0" timeLoss="17.21" rerouteNo="0" devices="tripinfo_up_48" vType="typeNS" speedFactor="1.00" vaporized=""/>
    <tripinfo id="up_49" depart="111.00" departLane="53o_0" departPos="5.10" departSpeed="0.00" departDelay="5.00" arrival="203.00" arrivalLane="54i_0" arrivalPos="10.00" arrivalSpeed="11.14" duration="92.00" routeLength="1015.10" waitSteps="0" timeLoss="15.95" rerouteNo="0" devices="tripinfo_up_49" vType="typeNS" speedFactor="1.00" vaporized=""/>
    <tripinfo id="down_53" depart="125.00" departLane="54o_0" departPos="5.10" departSpeed="0.00" departDelay="0.00" arrival="215.00" arrivalLane="53i_0" arrivalPos="10.00" arrivalSpeed="10.89" duration="90.00" routeLength="1015.10" waitSteps="0" timeLoss="13.83" rerouteNo="0" devices="tripinfo_down_53" vType="typeNS" speedFactor="1.00" vaporized=""/>
    <tripinfo id="up_54" depart="127.00" departLane="53o_0" departPos="5.10" departSpeed="0.00" departDelay="0.00" arrival="219.00" arrivalLane="54i_0" arrivalPos="10.00" arrivalSpeed="11.30" duration="92.00" routeLength="1015.10" waitSteps="0" timeLoss="15.22" rerouteNo="0" devices="tripinfo_up_54" vType="typeNS" speedFactor="1.00" vaporized=""/>
    <tripinfo id="up_55" depart="132.00" departLane="53o_0" departPos="5.10" departSpeed="0.00" departDelay="2.00" arrival="224.00" arrivalLane="54i_0" arrivalPos="10.00" arrivalSpeed="11.54" duration="92.00" routeLength="1015.10" waitSteps="0" timeLoss="15.20" rerouteNo="0" devices="tripinfo_up_55" vType="typeNS" speedFactor="1.00" vaporized=""/>
    <tripinfo id="right_32" depart="78.00" departLane="51o_0" departPos="5.10" departSpeed="0.00" departDelay="4.00" arrival="237.00" arrivalLane="52i_0" arrivalPos="10.00" arrivalSpeed="11.69" duration="159.00" routeLength="1015.10" waitSteps="58" timeLoss="82.63" rerouteNo="0" devices="tripinfo_right_32" vType="typeWE" speedFactor="1.00" vaporized=""/>
    <tripinfo id="left_39" depart="87.00" departLane="52o_0" departPos="5.10" departSpeed="0.00" departDelay="0.00" arrival="237.00" arrivalLane="51i_0" arrivalPos="10.00" arrivalSpeed="11.37" duration="150.00" routeLength="1015.10" waitSteps="46" timeLoss="73.50" rerouteNo="0" devices="tripinfo_left_39" vType="typeWE" speedFactor="1.00" vaporized=""/>
    <tripinfo id="right_34" depart="83.00" departLane="51o_0" departPos="5.10" departSpeed="0.00" departDelay="5.00" arrival="239.00" arrivalLane="52i_0" arrivalPos="10.00" arrivalSpeed="11.46" duration="156.00" routeLength="1015.10" waitSteps="53" timeLoss="79.57" rerouteNo="0" devices="tripinfo_right_34" vType="typeWE" speedFactor="1.00" vaporized=""/>
    <tripinfo id="left_41" depart="92.00" departLane="52o_0" departPos="5.10" departSpeed="0.00" departDelay="2.00" arrival="239.00" arrivalLane="51i_0" arrivalPos="10.00" arrivalSpeed="11.48" duration="147.00" routeLength="1015.10" waitSteps="44" timeLoss="70.54" rerouteNo="0" devices="tripinfo_left_41" vType="typeWE" speedFactor="1.00" vaporized=""/>
    <tripinfo id="right_36" depart="88.00" departLane="51o_0" departPos="5.10" departSpeed="0.00" departDelay="5.00" arrival="241.00" arrivalLane="52i_0" arrivalPos="10.00" arrivalSpeed="11.48" duration="153.00" routeLength="1015.10" waitSteps="50" timeLoss="77.07" rerouteNo="0" devices="tripinfo_right_36" vType="typeWE" speedFactor="1.00" vaporized=""/>
    <tripinfo id="left_43" depart="97.00" departLane="52o_0" departPos="5.10" departSpeed="0.00" departDelay="3.00" arrival="241.00" arrivalLane="51i_0" arrivalPos="10.00" arrivalSpeed="11.49" duration="144.00" routeLength="1015.10" waitSteps="39" timeLoss="67.37" rerouteNo="0" devices="tripinfo_left_43" vType="typeWE" speedFactor="1.00" vaporized=""/>
    <tripinfo id="right_38" depart="93.00" departLane="51o_0" departPos="5.10" departSpeed="0.00" departDelay="7.00" arrival="243.00" arrivalLane="52i_0" arrivalPos="10.00" arrivalSpeed="11.46" duration="150.00" routeLength="1015.10" waitSteps="45" timeLoss="74.06" rerouteNo="0" devices="tripinfo_right_38" vType="typeWE" speedFactor="1.00" vaporized=""/>
    <tripinfo id="left_51" depart="111.00" departLane="52o_0" departPos="5.10" departSpeed="0.00" departDelay="0.00" arrival="243.00" arrivalLane="51i_0" arrivalPos="10.00" arrivalSpeed="11.47" duration="132.00" routeLength="1015.10" waitSteps="27" timeLoss="55.33" rerouteNo="0" devices="tripinfo_left_51" vType="typeWE" speedFactor="1.00" vaporized=""/>
    <tripinfo id="left_52" depart="118.00" departLane="52o_0" departPos="5.10" departSpeed="0.00" departDelay="0.00" arrival="244.00" arrivalLane="51i_0" arrivalPos="10.00" arrivalSpeed="11.30" duration="126.00" routeLength="1015.10" waitSteps="21" timeLoss="50.24" rerouteNo="0" devices="tripinfo_left_52" vType="typeWE" speedFactor="1.00" vaporized=""/>
    <tripinfo id="right_42" depart="98.00" departLane="51o_0" departPos="5.10" departSpeed="0.00" departDelay="5.00" arrival="245.00" arrivalLane="52i_0" arrivalPos="10.00" arrivalSpeed="11.37" duration="147.00" routeLength="1015.10" waitSteps="42" timeLoss="70.87" rerouteNo="0" devices="tripinfo_right_42" vType="typeWE" speedFactor="1.00" vaporized=""/>
    <tripinfo id="right_45" depart="103.00" departLane="51o_0" departPos="5.10" departSpeed="0.00" departDelay="8.00" arrival="247.00" arrivalLane="52i_0" arrivalPos="10.00" arrivalSpeed="11.66" duration="144.00" routeLength="1015.10" waitSteps="39" timeLoss="67.72" rerouteNo="0" devices="tripinfo_right_45" vType="typeWE" speedFactor="1.00" vaporized=""/>
    <tripinfo id="right_47" depart="108.00" departLane="51o_0" departPos="5.10" departSpeed="0.00" departDelay="6.00" arrival="249.00" arrivalLane="52i_0" arrivalPos="10.00" arrivalSpeed="11.84" duration="141.00" routeLength="1015.10" waitSteps="36" timeLoss="64.67" rerouteNo="0" devices="tripinfo_right_47" vType="typeWE" speedFactor="1.00" vaporized=""/>
    <tripinfo id="right_56" depart="139.00" departLane="51o_0" departPos="5.10" departSpeed="0.00" departDelay="1.00" arrival="252.00" arrivalLane="52i_0" arrivalPos="10.00" arrivalSpeed="11.31" duration="113.00" routeLength="1015.10" waitSteps="5" timeLoss="36.52" rerouteNo="0" devices="tripinfo_right_56" vType="typeWE" speedFactor="1.00" vaporized=""/>
    <tripinfo id="right_57" depart="145.00" departLane="51o_0" departPos="5.10" departSpeed="0.00" departDelay="0.00" arrival="253.00" arrivalLane="52i_0" arrivalPos="10.00" arrivalSpeed="10.91" duration="108.00" routeLength="1015.10" waitSteps="1" timeLoss="32.02" rerouteNo="0" devices="tripinfo_right_57" vType="typeWE" speedFactor="1.00" vaporized=""/>
    <tripinfo id="right_59" depart="151.00" departLane="51o_0" departPos="5.10" departSpeed="0.00" departDelay="0.00" arrival="255.00" arrivalLane="52i_0" arrivalPos="10.00" arrivalSpeed="11.45" duration="104.00" routeLength="1015.10" waitSteps="0" timeLoss="28.12" rerouteNo="0" devices="tripinfo_right_59" vType="typeWE" speedFactor="1.00" vaporized=""/>
    <tripinfo id="right_60" depart="157.00" departLane="51o_0" departPos="5.10" departSpeed="0.00" departDelay="2.00" arrival="257.00" arrivalLane="52i_0" arrivalPos="10.00" arrivalSpeed="11.29" duration="100.00" routeLength="1015.10" waitSteps="0" timeLoss="24.06" rerouteNo="0" devices="tripinfo_right_60" vType="typeWE" speedFactor="1.00" vaporized=""/>
    <tripinfo id="left_63" depart="167.00" departLane="52o_0" departPos="5.10" departSpeed="0.00" departDelay="0.00" arrival="259.00" arrivalLane="51i_0" arrivalPos="10.00" arrivalSpeed="11.43" duration="92.00" routeLength="1015.10" waitSteps="0" timeLoss="16.07" rerouteNo="0" devices="tripinfo_left_63" vType="typeWE" speedFactor="1.00" vaporized=""/>
    <tripinfo id="left_65" depart="172.00" departLane="52o_0" departPos="5.10" departSpeed="0.00" departDelay="1.00" arrival="263.00" arrivalLane="51i_0" arrivalPos="10.00" arrivalSpeed="11.51" duration="91.00" routeLength="1015.10" waitSteps="0" timeLoss="14.89" rerouteNo="0" devices="tripinfo_left_65" vType="typeWE" speedFactor="1.00" vaporized=""/>
    <tripinfo id="right_66" depart="184.00" departLane="51o_0" departPos="5.10" departSpeed="0.00" departDelay="0.00" arrival="276.00" arrivalLane="52i_0" arrivalPos="10.00" arrivalSpeed="11.37" duration="92.00" routeLength="1015.10" waitSteps="0" timeLoss="15.44" rerouteNo="0" devices="tripinfo_right_66" vType="typeWE" speedFactor="1.00" vaporized=""/>
    <tripinfo id="up_61" depart="156.00" departLane="53o_0" departPos="5.10" departSpeed="0.00" departDelay="0.00" arrival="296.00" arrivalLane="54i_0" arrivalPos="10.00" arrivalSpeed="10.82" duration="140.00" routeLength="1015.10" waitSteps="38" timeLoss="64.02" rerouteNo="0" devices="tripinfo_up_61" vType="typeNS" speedFactor="1.00" vaporized=""/>
    <tripinfo id="down_58" depart="149.00" departLane="54o_0" departPos="5.10" departSpeed="0.00" departDelay="0.00" arrival="296.00" arrivalLane="53i_0" arrivalPos="10.00" arrivalSpeed="11.71" duration="147.00" routeLength="1015.10" waitSteps="45" timeLoss="70.95" rerouteNo="0" devices="tripinfo_down_58" vType="typeNS" speedFactor="1.00" vaporized=""/>
    <tripinfo id="down_62" depart="162.00" departLane="54o_0" departPos="5.10" departSpeed="0.00" departDelay="0.00" arrival="298.00" arrivalLane="53i_0" arrivalPos="10.00" arrivalSpeed="11.03" duration="136.00" routeLength="1015.10" waitSteps="33" timeLoss="60.02" rerouteNo="0" devices="tripinfo_down_62" vType="typeNS" speedFactor="1.00" vaporized=""/>
    <tripinfo id="up_67" depart="184.00" departLane="53o_0" departPos="5.10" departSpeed="0.00" departDelay="0.00" arrival="299.00" arrivalLane="54i_0" arrivalPos="10.00" arrivalSpeed="11.28" duration="115.00" routeLength="1015.10" waitSteps="8" timeLoss="38.47" rerouteNo="0" devices="tripinfo_up_67" vType="typeNS" speedFactor="1.00" vaporized=""/>
    <tripinfo id="up_68" depart="195.00" departLane="53o_0" departPos="5.10" departSpeed="0.00" departDelay="0.00" arrival="300.00" arrivalLane="54i_0" arrivalPos="10.00" arrivalSpeed="11.59" duration="105.00" routeLength="1015.10" waitSteps="1" timeLoss="29.18" rerouteNo="0" devices="tripinfo_up_68" vType="typeNS" speedFactor="1.00" vaporized=""/>
    <tripinfo id="down_64" depart="169.00" departLane="54o_0" departPos="5.10" departSpeed="0.00" departDelay="0.00" arrival="301.00" arrivalLane="53i_0" arrivalPos="10.00" arrivalSpeed="11.28" duration="132.00" routeLength="1015.10" waitSteps="27" timeLoss="55.78" rerouteNo="0" devices="tripinfo_down_64" vType="typeNS" speedFactor="1.00" vaporized=""/>
    <tripinfo id="up_70" depart="203.00" departLane="53o_0" departPos="5.10" departSpeed="0.00" departDelay="0.00" arrival="302.00" arrivalLane="54i_0" arrivalPos="10.00" arrivalSpeed="11.42" duration="99.00" routeLength="1015.10" waitSteps="0" timeLoss="23.02" rerouteNo="0" devices="tripinfo_up_70" vType="typeNS" speedFactor="1.00" vaporized=""/>
    <tripinfo id="down_73" depart="212.00" departLane="54o_0" departPos="5.10" departSpeed="0.00" departDelay="0.00" arrival="303.00" arrivalLane="53i_0" arrivalPos="10.00" arrivalSpeed="11.34" duration="91.00" routeLength="1015.10" waitSteps="0" timeLoss="14.89" rerouteNo="0" devices="tripinfo_down_73" vType="typeNS" speedFactor="1.00" vaporized=""/>
    <tripinfo id="up_71" depart="208.00" departLane="53o_0" departPos="5.10" departSpeed="0.00" departDelay="0.00" arrival="304.00" arrivalLane="54i_0" arrivalPos="10.00" arrivalSpeed="11.72" duration="96.00" routeLength="1015.10" waitSteps="0" timeLoss="19.72" rerouteNo="0" devices="tripinfo_up_71" vType="typeNS" speedFactor="1.00" vaporized=""/>
    <tripinfo id="up_72" depart="213.00" departLane="53o_0" departPos="5.10" departSpeed="0.00" departDelay="2.00" arrival="306.00" arrivalLane="54i_0" arrivalPos="10.00" arrivalSpeed="11.63" duration="93.00" routeLength="1015.10" waitSteps="0" timeLoss="16.40" rerouteNo="0" devices="tripinfo_up_72" vType="typeNS" speedFactor="1.00" vaporized=""/>
    <tripinfo id="up_77" depart="224.00" departLane="53o_0" departPos="5.10" departSpeed="0.00" departDelay="0.00" arrival="315.00" arrivalLane="54i_0" arrivalPos="10.00" arrivalSpeed="11.73" duration="91.00" routeLength="1015.10" waitSteps="0" timeLoss="14.89" rerouteNo="0" devices="tripinfo_up_77" vType="typeNS" speedFactor="1.00" vaporized=""/>
    <tripinfo id="down_79" depart="226.00" departLane="54o_0" departPos="5.10" departSpeed="0.00" departDelay="0.00" arrival="317.00" arrivalLane="53i_0" arrivalPos="10.00" arrivalSpeed="11.57" duration="91.00" routeLength="1015.10" waitSteps="0" timeLoss="14.94" rerouteNo="0" devices="tripinfo_down_79" vType="typeNS" speedFactor="1.00" vaporized=""/>
    <tripinfo id="up_81" depart="233.00" departLane="53o_0" departPos="5.10" departSpeed="0.00" departDelay="0.00" arrival="324.00" arrivalLane="54i_0" arrivalPos="10.00" arrivalSpeed="11.42" duration="91.00" routeLength="1015.10" waitSteps="0" timeLoss="14.83" rerouteNo="0" devices="tripinfo_up_81" vType="typeNS" speedFactor="1.00" vaporized=""/>
    <tripinfo id="up_82" depart="238.00" departLane="53o_0" departPos="5.10" departSpeed="0.00" departDelay="4.00" arrival="330.00" arrivalLane="54i_0" arrivalPos="10.00" arrivalSpeed="11.58" duration="92.00" routeLength="1015.10" waitSteps="0" timeLoss="15.37" rerouteNo="0" devices="tripinfo_up_82" vType="typeNS" speedFactor="1.00" vaporized=""/>
    <tripinfo id="down_84" depart="240.00" departLane="54o_0" departPos="5.10" departSpeed="0.00" departDelay="0.00" arrival="331.00" arrivalLane="53i_0" arrivalPos="10.00" arrivalSpeed="11.15" duration="91.00" routeLength="1015.10" waitSteps="0" timeLoss="14.78" rerouteNo="0" devices="tripinfo_down_84" vType="typeNS" speedFactor="1.00" vaporized=""/>
    <tripinfo id="right_69" depart="198.00" departLane="51o_0" departPos="5.10" departSpeed="0.00" departDelay="0.00" arrival="357.00" arrivalLane="52i_0" arrivalPos="10.00" arrivalSpeed="11.67" duration="159.00" routeLength="1015.10" waitSteps="55" timeLoss="82.89" rerouteNo="0" devices="tripinfo_right_69" vType="typeWE" speedFactor="1.00" vaporized=""/>
    <tripinfo id="left_87" depart="253.00" departLane="52o_0" departPos="5.10" departSpeed="0.00" departDelay="0.00" arrival="357.00" arrivalLane="51i_0" arrivalPos="10.00" arrivalSpeed="11.31" duration="104.00" routeLength="1015.10" waitSteps="1" timeLoss="27.78" rerouteNo="0" devices="tripinfo_left_87" vType="typeWE" speedFactor="1.00" vaporized=""/>
    <tripinfo id="right_74" depart="214.00" departLane="51o_0" departPos="5.10" departSpeed="0.00" departDelay="0.00" arrival="359.00" arrivalLane="52i_0" arrivalPos="10.00" arrivalSpeed="11.66" duration="145.00" routeLength="1015.10" waitSteps="43" timeLoss="68.70" rerouteNo="0" devices="tripinfo_right_74" vType="typeWE" speedFactor="1.00" vaporized=""/>