<?xml version="1.0" encoding="UTF-8"?>

<!-- generated on Mon Apr 30 16:37:35 2018 by SUMO Version 0.32.0
<?xml version="1.0" encoding="UTF-8"?>

<configuration xmlns:xsi="http://www.w3.org/2001/XMLSchema-instance" xsi:noNamespaceSchemaLocation="http://sumo.dlr.de/xsd/sumoConfiguration.xsd">

    <input>
        <net-file value="data/cross.net.xml"/>
        <route-files value="data/cross.rou.xml"/>
        <additional-files value="data/cross.det.xml"/>
    </input>

    <output>
        <summary-output value="data/cross.out"/>
        <tripinfo-output value="output/tripinfo79.xml"/>
    </output>

    <time>
        <begin value="0"/>
    </time>

    <report>
        <verbose value="true"/>
        <duration-log.statistics value="true"/>
        <no-step-log value="true"/>
    </report>

    <traci_server>
        <remote-port value="37447"/>
    </traci_server>

</configuration>
-->

<tripinfos xmlns:xsi="http://www.w3.org/2001/XMLSchema-instance" xsi:noNamespaceSchemaLocation="http://sumo.dlr.de/xsd/tripinfo_file.xsd">
    <tripinfo id="down_0" depart="2.00" departLane="54o_0" departPos="5.10" departSpeed="0.00" departDelay="0.00" arrival="93.00" arrivalLane="53i_0" arrivalPos="10.00" arrivalSpeed="11.47" duration="91.00" routeLength="1015.10" waitSteps="0" timeLoss="14.83" rerouteNo="0" devices="tripinfo_down_0" vType="typeNS" speedFactor="1.00" vaporized=""/>
    <tripinfo id="left_2" depart="18.00" departLane="52o_0" departPos="5.10" departSpeed="0.00" departDelay="0.00" arrival="109.00" arrivalLane="51i_0" arrivalPos="10.00" arrivalSpeed="11.73" duration="91.00" routeLength="1015.10" waitSteps="0" timeLoss="14.76" rerouteNo="0" devices="tripinfo_left_2" vType="typeWE" speedFactor="1.00" vaporized=""/>
    <tripinfo id="right_1" depart="16.00" departLane="51o_0" departPos="5.10" departSpeed="0.00" departDelay="0.00" arrival="110.00" arrivalLane="52i_0" arrivalPos="10.00" arrivalSpeed="11.39" duration="94.00" routeLength="1015.10" waitSteps="0" timeLoss="17.75" rerouteNo="0" devices="tripinfo_right_1" vType="typeWE" speedFactor="1.00" vaporized=""/>
    <tripinfo id="left_5" depart="31.00" departLane="52o_0" departPos="5.10" departSpeed="0.00" departDelay="0.00" arrival="122.00" arrivalLane="51i_0" arrivalPos="10.00" arrivalSpeed="11.40" duration="91.00" routeLength="1015.10" waitSteps="0" timeLoss="14.80" rerouteNo="0" devices="tripinfo_left_5" vType="typeWE" speedFactor="1.00" vaporized=""/>
    <tripinfo id="left_6" depart="36.00" departLane="52o_0" departPos="5.10" departSpeed="0.00" departDelay="3.00" arrival="128.00" arrivalLane="51i_0" arrivalPos="10.00" arrivalSpeed="11.39" duration="92.00" routeLength="1015.10" waitSteps="0" timeLoss="15.71" rerouteNo="0" devices="tripinfo_left_6" vType="typeWE" speedFactor="1.00" vaporized=""/>
    <tripinfo id="left_7" depart="42.00" departLane="52o_0" departPos="5.10" departSpeed="0.00" departDelay="0.00" arrival="133.00" arrivalLane="51i_0" arrivalPos="10.00" arrivalSpeed="11.34" duration="91.00" routeLength="1015.10" waitSteps="0" timeLoss="14.91" rerouteNo="0" devices="tripinfo_left_7" vType="typeWE" speedFactor="1.00" vaporized=""/>
    <tripinfo id="left_8" depart="47.00" departLane="52o_0" departPos="5.10" departSpeed="0.00" departDelay="4.00" arrival="138.00" arrivalLane="51i_0" arrivalPos="10.00" arrivalSpeed="11.39" duration="91.00" routeLength="1015.10" waitSteps="0" timeLoss="14.71" rerouteNo="0" devices="tripinfo_left_8" vType="typeWE" speedFactor="1.00" vaporized=""/>
    <tripinfo id="left_9" depart="57.00" departLane="52o_0" departPos="5.10" departSpeed="0.00" departDelay="0.00" arrival="148.00" arrivalLane="51i_0" arrivalPos="10.00" arrivalSpeed="11.58" duration="91.00" routeLength="1015.10" waitSteps="0" timeLoss="14.68" rerouteNo="0" devices="tripinfo_left_9" vType="typeWE" speedFactor="1.00" vaporized=""/>
    <tripinfo id="right_12" depart="63.00" departLane="51o_0" departPos="5.10" departSpeed="0.00" departDelay="0.00" arrival="155.00" arrivalLane="52i_0" arrivalPos="10.00" arrivalSpeed="11.76" duration="92.00" routeLength="1015.10" waitSteps="0" timeLoss="15.30" rerouteNo="0" devices="tripinfo_right_12" vType="typeWE" speedFactor="1.00" vaporized=""/>
    <tripinfo id="right_15" depart="71.00" departLane="51o_0" departPos="5.10" departSpeed="0.00" departDelay="0.00" arrival="161.00" arrivalLane="52i_0" arrivalPos="10.00" arrivalSpeed="11.70" duration="90.00" routeLength="1015.10" waitSteps="0" timeLoss="13.88" rerouteNo="0" devices="tripinfo_right_15" vType="typeWE" speedFactor="1.00" vaporized=""/>
    <tripinfo id="left_16" depart="71.00" departLane="52o_0" departPos="5.10" departSpeed="0.00" departDelay="0.00" arrival="162.00" arrivalLane="51i_0" arrivalPos="10.00" arrivalSpeed="11.39" duration="91.00" routeLength="1015.10" waitSteps="0" timeLoss="14.47" rerouteNo="0" devices="tripinfo_left_16" vType="typeWE" speedFactor="1.00" vaporized=""/>
    <tripinfo id="up_3" depart="18.00" departLane="53o_0" departPos="5.10" departSpeed="0.00" departDelay="0.00" arrival="176.00" arrivalLane="54i_0" arrivalPos="10.00" arrivalSpeed="11.44" duration="158.00" routeLength="1015.10" waitSteps="56" timeLoss="81.97" rerouteNo="0" devices="tripinfo_up_3" vType="typeNS" speedFactor="1.00" vaporized=""/>
    <tripinfo id="down_4" depart="29.00" departLane="54o_0" departPos="5.10" departSpeed="0.00" departDelay="0.00" arrival="177.00" arrivalLane="53i_0" arrivalPos="10.00" arrivalSpeed="11.55" duration="148.00" routeLength="1015.10" waitSteps="45" timeLoss="71.38" rerouteNo="0" devices="tripinfo_down_4" vType="typeNS" speedFactor="1.00" vaporized=""/>
    <tripinfo id="down_13" depart="64.00" departLane="54o_0" departPos="5.10" departSpeed="0.00" departDelay="0.00" arrival="178.00" arrivalLane="53i_0" arrivalPos="10.00" arrivalSpeed="10.72" duration="114.00" routeLength="1015.10" waitSteps="13" timeLoss="37.95" rerouteNo="0" devices="tripinfo_down_13" vType="typeNS" speedFactor="1.00" vaporized=""/>
    <tripinfo id="up_10" depart="60.00" departLane="53o_0" departPos="5.10" departSpeed="0.00" departDelay="0.00" arrival="179.00" arrivalLane="54i_0" arrivalPos="10.00" arrivalSpeed="11.16" duration="119.00" routeLength="1015.10" waitSteps="15" timeLoss="42.59" rerouteNo="0" devices="tripinfo_up_10" vType="typeNS" speedFactor="1.00" vaporized=""/>
    <tripinfo id="down_19" depart="76.00" departLane="54o_0" departPos="5.10" departSpeed="0.00" departDelay="0.00" arrival="181.00" arrivalLane="53i_0" arrivalPos="10.00" arrivalSpeed="11.57" duration="105.00" routeLength="1015.10" waitSteps="0" timeLoss="29.11" rerouteNo="0" devices="tripinfo_down_19" vType="typeNS" speedFactor="1.00" vaporized=""/>
    <tripinfo id="up_11" depart="65.00" departLane="53o_0" departPos="5.10" departSpeed="0.00" departDelay="3.00" arrival="182.00" arrivalLane="54i_0" arrivalPos="10.00" arrivalSpeed="11.65" duration="117.00" routeLength="1015.10" waitSteps="12" timeLoss="40.57" rerouteNo="0" devices="tripinfo_up_11" vType="typeNS" speedFactor="1.00" vaporized=""/>
    <tripinfo id="down_21" depart="83.00" departLane="54o_0" departPos="5.10" departSpeed="0.00" departDelay="0.00" arrival="183.00" arrivalLane="53i_0" arrivalPos="10.00" arrivalSpeed="11.20" duration="100.00" routeLength="1015.10" waitSteps="0" timeLoss="24.08" rerouteNo="0" devices="tripinfo_down_21" vType="typeNS" speedFactor="1.00" vaporized=""/>
    <tripinfo id="up_14" depart="70.00" departLane="53o_0" departPos="5.10" departSpeed="0.00" departDelay="2.00" arrival="184.00" arrivalLane="54i_0" arrivalPos="10.00" arrivalSpeed="11.36" duration="114.00" routeLength="1015.10" waitSteps="8" timeLoss="37.41" rerouteNo="0" devices="tripinfo_up_14" vType="typeNS" speedFactor="1.00" vaporized=""/>
    <tripinfo id="up_17" depart="75.00" departLane="53o_0" departPos="5.10" departSpeed="0.00" departDelay="3.00" arrival="186.00" arrivalLane="54i_0" arrivalPos="10.00" arrivalSpeed="11.40" duration="111.00" routeLength="1015.10" waitSteps="5" timeLoss="34.33" rerouteNo="0" devices="tripinfo_up_17" vType="typeNS" speedFactor="1.00" vaporized=""/>
    <tripinfo id="up_18" depart="80.00" departLane="53o_0" departPos="5.10" departSpeed="0.00" departDelay="7.00" arrival="188.00" arrivalLane="54i_0" arrivalPos="10.00" arrivalSpeed="11.42" duration="108.00" routeLength="1015.10" waitSteps="1" timeLoss="31.41" rerouteNo="0" devices="tripinfo_up_18" vType="typeNS" speedFactor="1.00" vaporized=""/>
    <tripinfo id="up_24" depart="96.00" departLane="53o_0" departPos="5.10" departSpeed="0.00" departDelay="0.00" arrival="189.00" arrivalLane="54i_0" arrivalPos="10.00" arrivalSpeed="10.95" duration="93.00" routeLength="1015.10" waitSteps="0" timeLoss="17.04" rerouteNo="0" devices="tripinfo_up_24" vType="typeNS" speedFactor="1.00" vaporized=""/>
    <tripinfo id="up_25" depart="101.00" departLane="53o_0" departPos="5.10" departSpeed="0.00" departDelay="3.00" arrival="192.00" arrivalLane="54i_0" arrivalPos="10.00" arrivalSpeed="11.36" duration="91.00" routeLength="1015.10" waitSteps="0" timeLoss="14.66" rerouteNo="0" devices="tripinfo_up_25" vType="typeNS" speedFactor="1.00" vaporized=""/>
    <tripinfo id="down_30" depart="107.00" departLane="54o_0" departPos="5.10" departSpeed="0.00" departDelay="0.00" arrival="197.00" arrivalLane="53i_0" arrivalPos="10.00" arrivalSpeed="11.07" duration="90.00" routeLength="1015.10" waitSteps="0" timeLoss="13.86" rerouteNo="0" devices="tripinfo_down_30" vType="typeNS" speedFactor="1.00" vaporized=""/>
    <tripinfo id="up_32" depart="113.00" departLane="53o_0" departPos="5.10" departSpeed="0.00" departDelay="0.00" arrival="204.00" arrivalLane="54i_0" arrivalPos="10.00" arrivalSpeed="11.61" duration="91.00" routeLength="1015.10" waitSteps="0" timeLoss="14.26" rerouteNo="0" devices="tripinfo_up_32" vType="typeNS" speedFactor="1.00" vaporized=""/>
    <tripinfo id="down_33" depart="130.00" departLane="54o_0" departPos="5.10" departSpeed="0.00" departDelay="0.00" arrival="222.00" arrivalLane="53i_0" arrivalPos="10.00" arrivalSpeed="11.67" duration="92.00" routeLength="1015.10" waitSteps="0" timeLoss="15.32" rerouteNo="0" devices="tripinfo_down_33" vType="typeNS" speedFactor="1.00" vaporized=""/>
    <tripinfo id="right_28" depart="103.00" departLane="51o_0" departPos="5.10" departSpeed="0.00" departDelay="0.00" arrival="236.00" arrivalLane="52i_0" arrivalPos="10.00" arrivalSpeed="11.22" duration="133.00" routeLength="1015.10" waitSteps="32" timeLoss="56.82" rerouteNo="0" devices="tripinfo_right_28" vType="typeWE" speedFactor="1.00" vaporized=""/>
    <tripinfo id="left_20" depart="79.00" departLane="52o_0" departPos="5.10" departSpeed="0.00" departDelay="0.00" arrival="237.00" arrivalLane="51i_0" arrivalPos="10.00" arrivalSpeed="11.47" duration="158.00" routeLength="1015.10" waitSteps="55" timeLoss="81.68" rerouteNo="0" devices="tripinfo_left_20" vType="typeWE" speedFactor="1.00" vaporized=""/>
    <tripinfo id="right_31" depart="109.00" departLane="51o_0" departPos="5.10" departSpeed="0.00" departDelay="1.00" arrival="238.00" arrivalLane="52i_0" arrivalPos="10.00" arrivalSpeed="11.40" duration="129.00" routeLength="1015.10" waitSteps="27" timeLoss="52.68" rerouteNo="0" devices="tripinfo_right_31" vType="typeWE" speedFactor="1.00" vaporized=""/>
    <tripinfo id="left_22" depart="85.00" departLane="52o_0" departPos="5.10" departSpeed="0.00" departDelay="1.00" arrival="239.00" arrivalLane="51i_0" arrivalPos="10.00" arrivalSpeed="11.46" duration="154.00" routeLength="1015.10" waitSteps="50" timeLoss="77.73" rerouteNo="0" devices="tripinfo_left_22" vType="typeWE" speedFactor="1.00" vaporized=""/>
    <tripinfo id="right_36" depart="148.00" departLane="51o_0" departPos="5.10" departSpeed="0.00" departDelay="2.00" arrival="240.00" arrivalLane="52i_0" arrivalPos="10.00" arrivalSpeed="11.35" duration="92.00" routeLength="1015.10" waitSteps="0" timeLoss="15.27" rerouteNo="0" devices="tripinfo_right_36" vType="typeWE" speedFactor="1.00" vaporized=""/>
    <tripinfo id="left_23" depart="96.00" departLane="52o_0" departPos="5.10" departSpeed="0.00" departDelay="0.00" arrival="241.00" arrivalLane="51i_0" arrivalPos="10.00" arrivalSpeed="11.37" duration="145.00" routeLength="1015.10" waitSteps="40" timeLoss="68.91" rerouteNo="0" devices="tripinfo_left_23" vType="typeWE" speedFactor="1.00" vaporized=""/>
    <tripinfo id="left_26" depart="101.00" departLane="52o_0" departPos="5.10" departSpeed="0.00" departDelay="2.00" arrival="243.00" arrivalLane="51i_0" arrivalPos="10.00" arrivalSpeed="11.35" duration="142.00" routeLength="1015.10" waitSteps="37" timeLoss="65.96" rerouteNo="0" devices="tripinfo_left_26" vType="typeWE" speedFactor="1.00" vaporized=""/>
    <tripinfo id="left_27" depart="107.00" departLane="52o_0" departPos="5.10" departSpeed="0.00" departDelay="6.00" arrival="245.00" arrivalLane="51i_0" arrivalPos="10.00" arrivalSpeed="11.39" duration="138.00" routeLength="1015.10" waitSteps="34" timeLoss="61.68" rerouteNo="0" devices="tripinfo_left_27" vType="typeWE" speedFactor="1.00" vaporized=""/>
    <tripinfo id="left_29" depart="112.00" departLane="52o_0" departPos="5.10" departSpeed="0.00" departDelay="8.00" arrival="247.00" arrivalLane="51i_0" arrivalPos="10.00" arrivalSpeed="11.72" duration="135.00" routeLength="1015.10" waitSteps="30" timeLoss="58.40" rerouteNo="0" devices="tripinfo_left_29" vType="typeWE" speedFactor="1.00" vaporized=""/>
    <tripinfo id="left_34" depart="136.00" departLane="52o_0" departPos="5.10" departSpeed="0.00" departDelay="0.00" arrival="248.00" arrivalLane="51i_0" arrivalPos="10.00" arrivalSpeed="11.09" duration="112.00" routeLength="1015.10" waitSteps="6" timeLoss="35.92" rerouteNo="0" devices="tripinfo_left_34" vType="typeWE" speedFactor="1.00" vaporized=""/>
    <tripinfo id="right_40" depart="158.00" departLane="51o_0" departPos="5.10" departSpeed="0.00" departDelay="0.00" arrival="249.00" arrivalLane="52i_0" arrivalPos="10.00" arrivalSpeed="11.29" duration="91.00" routeLength="1015.10" waitSteps="0" timeLoss="14.82" rerouteNo="0" devices="tripinfo_right_40" vType="typeWE" speedFactor="1.00" vaporized=""/>
    <tripinfo id="left_35" depart="143.00" departLane="52o_0" departPos="5.10" departSpeed="0.00" departDelay="0.00" arrival="250.00" arrivalLane="51i_0" arrivalPos="10.00" arrivalSpeed="11.55" duration="107.00" routeLength="1015.10" waitSteps="1" timeLoss="31.13" rerouteNo="0" devices="tripinfo_left_35" vType="typeWE" speedFactor="1.00" vaporized=""/>
    <tripinfo id="left_37" depart="148.00" departLane="52o_0" departPos="5.10" departSpeed="0.00" departDelay="1.00" arrival="252.00" arrivalLane="51i_0" arrivalPos="10.00" arrivalSpeed="11.80" duration="104.00" routeLength="1015.10" waitSteps="0" timeLoss="27.66" rerouteNo="0" devices="tripinfo_left_37" vType="typeWE" speedFactor="1.00" vaporized=""/>
    <tripinfo id="right_41" depart="163.00" departLane="51o_0" departPos="5.10" departSpeed="0.00" departDelay="4.00" arrival="253.00" arrivalLane="52i_0" arrivalPos="10.00" arrivalSpeed="11.61" duration="90.00" routeLength="1015.10" waitSteps="0" timeLoss="13.71" rerouteNo="0" devices="tripinfo_right_41" vType="typeWE" speedFactor="1.00" vaporized=""/>
    <tripinfo id="left_39" depart="155.00" departLane="52o_0" departPos="5.10" departSpeed="0.00" departDelay="2.00" arrival="254.00" arrivalLane="51i_0" arrivalPos="10.00" arrivalSpeed="11.48" duration="99.00" routeLength="1015.10" waitSteps="0" timeLoss="22.50" rerouteNo="0" devices="tripinfo_left_39" vType="typeWE" speedFactor="1.00" vaporized=""/>
    <tripinfo id="left_43" depart="161.00" departLane="52o_0" departPos="5.10" departSpeed="0.00" departDelay="0.00" arrival="256.00" arrivalLane="51i_0" arrivalPos="10.00" arrivalSpeed="11.48" duration="95.00" routeLength="1015.10" waitSteps="0" timeLoss="18.39" rerouteNo="0" devices="tripinfo_left_43" vType="typeWE" speedFactor="1.00" vaporized=""/>
    <tripinfo id="left_44" depart="166.00" departLane="52o_0" departPos="5.10" departSpeed="0.00" departDelay="0.00" arrival="258.00" arrivalLane="51i_0" arrivalPos="10.00" arrivalSpeed="11.49" duration="92.00" routeLength="1015.10" waitSteps="0" timeLoss="15.75" rerouteNo="0" devices="tripinfo_left_44" vType="typeWE" speedFactor="1.00" vaporized=""/>
    <tripinfo id="left_45" depart="171.00" departLane="52o_0" departPos="5.10" departSpeed="0.00" departDelay="3.00" arrival="262.00" arrivalLane="51i_0" arrivalPos="10.00" arrivalSpeed="11.59" duration="91.00" routeLength="1015.10" waitSteps="0" timeLoss="14.19" rerouteNo="0" devices="tripinfo_left_45" vType="typeWE" speedFactor="1.00" vaporized=""/>
    <tripinfo id="left_47" depart="176.00" departLane="52o_0" departPos="5.10" departSpeed="0.00" departDelay="0.00" arrival="268.00" arrivalLane="51i_0" arrivalPos="10.00" arrivalSpeed="11.24" duration="92.00" routeLength="1015.10" waitSteps="0" timeLoss="15.30" rerouteNo="0" devices="tripinfo_left_47" vType="typeWE" speedFactor="1.00" vaporized=""/>
    <tripinfo id="right_48" depart="178.00" departLane="51o_0" departPos="5.10" departSpeed="0.00" departDelay="0.00" arrival="270.00" arrivalLane="52i_0" arrivalPos="10.00" arrivalSpeed="11.33" duration="92.00" routeLength="1015.10" waitSteps="0" timeLoss="15.76" rerouteNo="0" devices="tripinfo_right_48" vType="typeWE" speedFactor="1.00" vaporized=""/>
    <tripinfo id="right_51" depart="183.00" departLane="51o_0" departPos="5.10" departSpeed="0.00" departDelay="1.00" arrival="276.00" arrivalLane="52i_0" arrivalPos="10.00" arrivalSpeed="11.51" duration="93.00" routeLength="1015.10" waitSteps="1" timeLoss="16.95" rerouteNo="0" devices="tripinfo_right_51" vType="typeWE" speedFactor="1.00" vaporized=""/>
    <tripinfo id="left_54" depart="189.00" departLane="52o_0" departPos="5.10" departSpeed="0.00" departDelay="0.00" arrival="279.00" arrivalLane="51i_0" arrivalPos="10.00" arrivalSpeed="11.65" duration="90.00" routeLength="1015.10" waitSteps="0" timeLoss="13.58" rerouteNo="0" devices="tripinfo_left_54" vType="typeWE" speedFactor="1.00" vaporized=""/>
    <tripinfo id="right_55" depart="192.00" departLane="51o_0" departPos="5.10" departSpeed="0.00" departDelay="0.00" arrival="282.00" arrivalLane="52i_0" arrivalPos="10.00" arrivalSpeed="11.72" duration="90.00" routeLength="1015.10" waitSteps="0" timeLoss="13.72" rerouteNo="0" devices="tripinfo_right_55" vType="typeWE" speedFactor="1.00" vaporized=""/>
    <tripinfo id="up_42" depart="159.00" departLane="53o_0" departPos="5.10" departSpeed="0.00" departDelay="0.00" arrival="297.00" arrivalLane="54i_0" arrivalPos="10.00" arrivalSpeed="11.48" duration="138.00" routeLength="1015.10" waitSteps="34" timeLoss="62.06" rerouteNo="0" devices="tripinfo_up_42" vType="typeNS" speedFactor="1.00" vaporized=""/>
    <tripinfo id="down_38" depart="147.00" departLane="54o_0" departPos="5.10" departSpeed="0.00" departDelay="0.00" arrival="297.00" arrivalLane="53i_0" arrivalPos="10.00" arrivalSpeed="11.54" duration="150.00" routeLength="1015.10" waitSteps="47" timeLoss="73.77" rerouteNo="0" devices="tripinfo_down_38" vType="typeNS" speedFactor="1.00" vaporized=""/>
    <tripinfo id="up_46" depart="172.00" departLane="53o_0" departPos="5.10" departSpeed="0.00" departDelay="0.00" arrival="299.00" arrivalLane="54i_0" arrivalPos="10.00" arrivalSpeed="11.44" duration="127.00" routeLength="1015.10" waitSteps="23" timeLoss="50.87" rerouteNo="0" devices="tripinfo_up_46" vType="typeNS" speedFactor="1.00" vaporized=""/>
    <tripinfo id="down_49" depart="189.00" departLane="54o_0" departPos="5.10" departSpeed="0.00" departDelay="9.00" arrival="299.00" arrivalLane="53i_0" arrivalPos="10.00" arrivalSpeed="11.62" duration="110.00" routeLength="1015.10" waitSteps="6" timeLoss="34.24" rerouteNo="0" devices="tripinfo_down_49" vType="typeNS" speedFactor="1.00" vaporized=""/>
    <tripinfo id="up_50" depart="181.00" departLane="53o_0" departPos="5.10" departSpeed="0.00" departDelay="0.00" arrival="301.00" arrivalLane="54i_0" arrivalPos="10.00" arrivalSpeed="11.45" duration="120.00" routeLength="1015.10" waitSteps="15" timeLoss="43.65" rerouteNo="0" devices="tripinfo_up_50" vType="typeNS" speedFactor="1.00" vaporized=""/>
    <tripinfo id="down_52" depart="194.00" departLane="54o_0" departPos="5.10" departSpeed="0.00" departDelay="10.00" arrival="302.00" arrivalLane="53i_0" arrivalPos="10.00" arrivalSpeed="11.77" duration="108.00" routeLength="1015.10" waitSteps="3" timeLoss="31.80" rerouteNo="0" devices="tripinfo_down_52" vType="typeNS" speedFactor="1.00" vaporized=""/>
    <tripinfo id="up_59" depart="208.00" departLane="53o_0" departPos="5.10" departSpeed="0.00" departDelay="0.00" arrival="303.00" arrivalLane="54i_0" arrivalPos="10.00" arrivalSpeed="11.54" duration="95.00" routeLength="1015.10" waitSteps="0" timeLoss="18.41" rerouteNo="0" devices="tripinfo_up_59" vType="typeNS" speedFactor="1.00" vaporized=""/>
    <tripinfo id="down_53" depart="199.00" departLane="54o_0" departPos="5.10" departSpeed="0.00" departDelay="12.00" arrival="304.00" arrivalLane="53i_0" arrivalPos="10.00" arrivalSpeed="11.55" duration="105.00" routeLength="1015.10" waitSteps="0" timeLoss="28.61" rerouteNo="0" devices="tripinfo_down_53" vType="typeNS" speedFactor="1.00" vaporized=""/>
    <tripinfo id="down_61" depart="213.00" departLane="54o_0" departPos="5.10" departSpeed="0.00" departDelay="0.00" arrival="306.00" arrivalLane="53i_0" arrivalPos="10.00" arrivalSpeed="11.46" duration="93.00" routeLength="1015.10" waitSteps="0" timeLoss="16.30" rerouteNo="0" devices="tripinfo_down_61" vType="typeNS" speedFactor="1.00" vaporized=""/>
    <tripinfo id="down_63" depart="226.00" departLane="54o_0" departPos="5.10" departSpeed="0.00" departDelay="0.00" arrival="318.00" arrivalLane="53i_0" arrivalPos="10.00" arrivalSpeed="11.31" duration="92.00" routeLength="1015.10" waitSteps="0" timeLoss="15.32" rerouteNo="0" devices="tripinfo_down_63" vType="typeNS" speedFactor="1.00" vaporized=""/>
    <tripinfo id="down_64" depart="231.00" departLane="54o_0" departPos="5.10" departSpeed="0.00" departDelay="3.00" arrival="323.00" arrivalLane="53i_0" arrivalPos="10.00" arrivalSpeed="11.68" duration="92.00" routeLength="1015.10" waitSteps="0" timeLoss="15.25" rerouteNo="0" devices="tripinfo_down_64" vType="typeNS" speedFactor="1.00" vaporized=""/>
    <tripinfo id="down_67" depart="236.00" departLane="54o_0" departPos="5.10" departSpeed="0.00" departDelay="3.00" arrival="328.00" arrivalLane="53i_0" arrivalPos="10.00" arrivalSpeed="11.32" duration="92.00" routeLength="1015.10" waitSteps="0" timeLoss="15.70" rerouteNo="0" devices="tripinfo_down_67" vType="typeNS" speedFactor="1.00" vaporized=""/>
    <tripinfo id="up_70" depart="238.00" departLane="53o_0" departPos="5.10" departSpeed="0.00" departDelay="0.00" arrival="329.00" arrivalLane="54i_0" arrivalPos="10.00" arrivalSpeed="11.52" duration="91.00" routeLength="1015.10" waitSteps="0" timeLoss="14.73" rerouteNo="0" devices="tripinfo_up_70" vType="typeNS" speedFactor="1.00" vaporized=""/>
    <tripinfo id="up_72" depart="244.00" departLane="53o_0" departPos="5.10" departSpeed="0.00" departDelay="0.00" arrival="335.00" arrivalLane="54i_0" arrivalPos="10.00" arrivalSpeed="10.95" duration="91.00" routeLength="1015.10" waitSteps="0" timeLoss="14.79" rerouteNo="0" devices="tripinfo_up_72" vType="typeNS" speedFactor="1.00" vaporized=""/>
    <tripinfo id="down_68" depart="242.00" departLane="54o_0" departPos="5.10" departSpeed="0.00" departDelay="8.00" arrival="335.00" arrivalLane="53i_0" arrivalPos="10.00" arrivalSpeed="11.30" duration="93.00" routeLength="1015.10" waitSteps="0" timeLoss="16.32" rerouteNo="0" devices="tripinfo_down_68" vType="typeNS" speedFactor="1.00" vaporized=""/>
    <tripinfo id="down_69" depart="247.00" departLane="54o_0" departPos="5.10" departSpeed="0.00" departDelay="12.00" arrival="340.00" arrivalLane="53i_0" arrivalPos="10.00" arrivalSpeed="11.66" duration="93.00" routeLength="1015.10" waitSteps="0" timeLoss="16.95" rerouteNo="0" devices="tripinfo_down_69" vType="typeNS" speedFactor="1.00" vaporized=""/>
    <tripinfo id="up_77" depart="255.00" departLane="53o_0" departPos="5.10" departSpeed="0.00" departDelay="0.00" arrival="346.00" arrivalLane="54i_0" arrivalPos="10.00" arrivalSpeed="11.58" duration="91.00" routeLength="1015.10" waitSteps="0" timeLoss="14.80" rerouteNo="0" devices="tripinfo_up_77" vType="typeNS" speedFactor="1.00" vaporized=""/>
    <tripinfo id="down_76" depart="254.00" departLane="54o_0" departPos="5.10" departSpeed="0.00" departDelay="0.00" arrival="346.00" arrivalLane="53i_0" arrivalPos="10.00" arrivalSpeed="11.23" duration="92.00" routeLength="1015.10" waitSteps="0" timeLoss="15.23" rerouteNo="0" devices="tripinfo_down_76" vType="typeNS" speedFactor="1.00" vaporized=""/>
    <tripinfo id="right_56" depart="197.00" departLane="51o_0" departPos="5.10" departSpeed="0.00" departDelay="4.00" arrival="357.00" arrivalLane="52i_0" arrivalPos="10.00" arrivalSpeed="11.48" duration="160.00" routeLength="1015.10" waitSteps="60" timeLoss="83.70" rerouteNo="0" devices="tripinfo_right_56" vType="typeWE" speedFactor="1.00" vaporized=""/>
    <tripinfo id="left_57" depart="198.00" departLane="52o_0" departPos="5.10" departSpeed="0.00" departDelay="0.00" arrival="357.00" arrivalLane="51i_0" arrivalPos="10.00" arrivalSpeed="11.44" duration="159.00" routeLength="1015.10" waitSteps="56" timeLoss="82.53" rerouteNo="0" devices="tripinfo_left_57" vType="typeWE" speedFactor="1.00" vaporized=""/>
    <tripinfo id="left_58" depart="204.00" departLane="52o_0" departPos="5.10" departSpeed="0.00" departDelay="0.00" arrival="358.00" arrivalLane="51i_0" arrivalPos="10.00" arrivalSpeed="10.90" duration="154.00" routeLength="1015.10" waitSteps="52" timeLoss="77.95" rerouteNo="0" devices="tripinfo_left_58" vType="typeWE" speedFactor="1.00" vaporized=""/>
    <tripinfo id="right_65" depart="229.00" departLane="51o_0" departPos="5.10" departSpeed="0.00" departDelay="0.00" arrival="359.00" arrivalLane="52i_0" arrivalPos="10.00" arrivalSpeed="11.41" duration="130.00" routeLength="1015.10" waitSteps="26" timeLoss="54.12" rerouteNo="0" devices="tripinfo_right_65" vType="typeWE" speedFactor="1.00" vaporized=""/>
    <tripinfo id="left_60" depart="211.00" departLane="52o_0" departPos="5.10" departSpeed="0.00" departDelay="0.00" arrival="360.00" arrivalLane="51i_0" arrivalPos="10.00" arrivalSpeed="11.54" duration="149.00" routeLength="1015.10" waitSteps="46" timeLoss="73.05" rerouteNo="0" devices="tripinfo_left_60" vType="typeWE" speedFactor="1.00" vaporized=""/>
    <tripinfo id="right_66" depart="234.00" departLane="51o_0" departPos="5.10" departSpeed="0.00" departDelay="3.00" arrival="361.00" arrivalLane="52i_0" arrivalPos="10.00" arrivalSpeed="11.65" duration="127.00" routeLength="1015.10" waitSteps="23" timeLoss="50.99" rerouteNo="0" devices="tripinfo_right_66" vType="typeWE" speedFactor="1.00" vaporized=""/>
    <tripinfo id="left_62" depart="216.00" departLane="52o_0" departPos="5.10" departSpeed="0.00" departDelay="0.00" arrival="362.00" arrivalLane="51i_0" arrivalPos="10.00" arrivalSpeed="11.74" duration="146.00" routeLength="1015.10" waitSteps="43" timeLoss="70.01" rerouteNo="0" devices="tripinfo_left_62" vType="typeWE" speedFactor="1.00" vaporized=""/>
    <tripinfo id="right_71" depart="241.00" departLane="51o_0" departPos="5.10" departSpeed="0.00" departDelay="1.00" arrival="363.00" arrivalLane="52i_0" arrivalPos="10.00" arrivalSpeed="11.54" duration="122.00" routeLength="1015.10" waitSteps="18" timeLoss="45.75" rerouteNo="0" devices="tripinfo_right_71" vType="typeWE" speedFactor="1.00" vaporized=""/>
    <tripinfo id="left_73" depart="245.00" departLane="52o_0" departPos="5.10" departSpeed="0.00" departDelay="0.00" arrival="364.00" arrivalLane="51i_0" arrivalPos="10.00" arrivalSpeed="11.34" duration="119.00" routeLength="1015.10" waitSteps="15" timeLoss="43.16" rerouteNo="0" devices="tripinfo_left_73" vType="typeWE" speedFactor="1.00" vaporized=""/>
    <tripinfo id="right_74" depart="248.00" departLane="51o_0" departPos="5.10" departSpeed="0.00" departDelay="2.00" arrival="365.00" arrivalLane="52i_0" arrivalPos="10.00" arrivalSpeed="11.74" duration="117.00" routeLength="1015.10" waitSteps="12" timeLoss="40.71" rerouteNo="0" devices="tripinfo_right_74" vType="typeWE" speedFactor="1.00" vaporized=""/>
    <tripinfo id="left_75" depart="250.00" departLane="52o_0" departPos="5.10" departSpeed="0.00" departDelay="2.00" arrival="366.00" arrivalLane="51i_0" arrivalPos="10.00" arrivalSpeed="11.60" duration="116.00" routeLength="1015.10" waitSteps="10" timeLoss="39.86" rerouteNo="0" devices="tripinfo_left_75" vType="typeWE" speedFactor="1.00" vaporized=""/>
    <tripinfo id="left_79" depart="259.00" departLane="52o_0" departPos="5.10" departSpeed="0.00" departDelay="0.00" arrival="368.00" arrivalLane="51i_0" arrivalPos="10.00" arrivalSpeed="11.45" duration="109.00" routeLength="1015.10" waitSteps="4" timeLoss="32.77" rerouteNo="0" devices="tripinfo_left_79" vType="typeWE" speedFactor="1.00" vaporized=""/>
    <tripinfo id="left_81" depart="264.00" departLane="52o_0" departPos="5.10" departSpeed="0.00" departDelay="2.00" arrival="370.00" arrivalLane="51i_0" arrivalPos="10.00" arrivalSpeed="11.47" duration="106.00" routeLength="1015.10" waitSteps="0" timeLoss="29.60" rerouteNo="0" devices="tripinfo_left_81" vType="typeWE" speedFactor="1.00" vaporized=""/>
    <tripinfo id="left_85" depart="276.00" departLane="52o_0" departPos="5.10" departSpeed="0.00" departDelay="1.00" arrival="372.00" arrivalLane="51i_0" arrivalPos="10.00" arrivalSpeed="11.50" duration="96.00" routeLength="1015.10" waitSteps="0" timeLoss="19.69" rerouteNo="0" devices="tripinfo_left_85" vType="typeWE" speedFactor="1.00" vaporized=""/>